+ 0 7 6 tcp 40 ------- 0 7.0 2.0 0 0
- 0 7 6 tcp 40 ------- 0 7.0 2.0 0 0
+ 0.002 7 6 tcp 40 ------- 1 7.1 3.0 0 1
- 0.002 7 6 tcp 40 ------- 1 7.1 3.0 0 1
r 0.035032 7 6 tcp 40 ------- 0 7.0 2.0 0 0
+ 0.035032 6 5 tcp 40 ------- 0 7.0 2.0 0 0
- 0.035032 6 5 tcp 40 ------- 0 7.0 2.0 0 0
r 0.037032 7 6 tcp 40 ------- 1 7.1 3.0 0 1
+ 0.037032 6 5 tcp 40 ------- 1 7.1 3.0 0 1
- 0.037032 6 5 tcp 40 ------- 1 7.1 3.0 0 1
r 0.050064 6 5 tcp 40 ------- 0 7.0 2.0 0 0
+ 0.050064 5 4 tcp 40 ------- 0 7.0 2.0 0 0
- 0.050064 5 4 tcp 40 ------- 0 7.0 2.0 0 0
r 0.052064 6 5 tcp 40 ------- 1 7.1 3.0 0 1
+ 0.052064 5 4 tcp 40 ------- 1 7.1 3.0 0 1
- 0.052064 5 4 tcp 40 ------- 1 7.1 3.0 0 1
r 0.060065 5 4 tcp 40 ------- 0 7.0 2.0 0 0
+ 0.060065 4 0 tcp 40 ------- 0 7.0 2.0 0 0
- 0.060065 4 0 tcp 40 ------- 0 7.0 2.0 0 0
r 0.060465 4 0 tcp 40 ------- 0 7.0 2.0 0 0
+ 0.060465 0 1 tcp 40 -------- 0 7.0 2.0 0 0
- 0.060465 0 1 tcp 40 -------- 0 7.0 2.0 0 0
r 0.062065 5 4 tcp 40 ------- 1 7.1 3.0 0 1
+ 0.062065 4 0 tcp 40 ------- 1 7.1 3.0 0 1
- 0.062065 4 0 tcp 40 ------- 1 7.1 3.0 0 1
r 0.062465 4 0 tcp 40 ------- 1 7.1 3.0 0 1
+ 0.062465 0 1 tcp 40 -------- 1 7.1 3.0 0 1
- 0.062465 0 1 tcp 40 -------- 1 7.1 3.0 0 1
r 0.075466 0 1 tcp 40 -------- 0 7.0 2.0 0 0
