+ 0 0 2 tcp 40 ------- 0 0.0 3.0 0 0 0 0x0 0 0
- 0 0 2 tcp 40 ------- 0 0.0 3.0 0 0 0 0x0 0 0
r 4e-05 0 2 tcp 40 ------- 0 0.0 3.0 0 0 0 0x0 0 0
+ 0.30088 0 2 tcp 1000 ------- 0 0.0 3.0 1 2 0 0x0 0 0
- 0.30088 0 2 tcp 1000 ------- 0 0.0 3.0 1 2 0 0x0 0 0
+ 0.30088 0 2 tcp 1000 ------- 0 0.0 3.0 2 3 0 0x0 0 0
r 0.30188 0 2 tcp 1000 ------- 0 0.0 3.0 1 2 0 0x0 0 0
- 0.30188 0 2 tcp 1000 ------- 0 0.0 3.0 2 3 0 0x0 0 0
r 0.30288 0 2 tcp 1000 ------- 0 0.0 3.0 2 3 0 0x0 0 0
+ 0.52232 0 2 tcp 1000 ------- 0 0.0 3.0 3 5 0 0x0 0 0
- 0.52232 0 2 tcp 1000 ------- 0 0.0 3.0 3 5 0 0x0 0 0
+ 0.52232 0 2 tcp 1000 ------- 0 0.0 3.0 4 6 0 0x0 0 0
+ 0.52232 0 2 tcp 1000 ------- 0 0.0 3.0 5 7 0 0x0 0 0
r 0.52332 0 2 tcp 1000 ------- 0 0.0 3.0 3 5 0 0x0 0 0
- 0.52332 0 2 tcp 1000 ------- 0 0.0 3.0 4 6 0 0x0 0 0
r 0.52432 0 2 tcp 1000 ------- 0 0.0 3.0 4 6 0 0x0 0 0
- 0.52432 0 2 tcp 1000 ------- 0 0.0 3.0 5 7 0 0x0 0 0
r 0.52532 0 2 tcp 1000 ------- 0 0.0 3.0 5 7 0 0x0 0 0
+ 0.74376 0 2 tcp 1000 ------- 0 0.0 3.0 6 9 0 0x0 0 0
- 0.74376 0 2 tcp 1000 ------- 0 0.0 3.0 6 9 0 0x0 0 0
+ 0.74376 0 2 tcp 1000 ------- 0 0.0 3.0 7 10 0 0x0 0 0
+ 0.74376 0 2 tcp 1000 ------- 0 0.0 3.0 8 11 0 0x0 0 0
r 0.74476 0 2 tcp 1000 ------- 0 0.0 3.0 6 9 0 0x0 0 0
- 0.74476 0 2 tcp 1000 ------- 0 0.0 3.0 7 10 0 0x0 0 0
r 0.74576 0 2 tcp 1000 ------- 0 0.0 3.0 7 10 0 0x0 0 0
- 0.74576 0 2 tcp 1000 ------- 0 0.0 3.0 8 11 0 0x0 0 0
r 0.74676 0 2 tcp 1000 ------- 0 0.0 3.0 8 11 0 0x0 0 0
+ 0.85376 0 2 tcp 1000 ------- 0 0.0 3.0 9 13 0 0x0 0 0
- 0.85376 0 2 tcp 1000 ------- 0 0.0 3.0 9 13 0 0x0 0 0
+ 0.85376 0 2 tcp 1000 ------- 0 0.0 3.0 10 14 0 0x0 0 0
r 0.85476 0 2 tcp 1000 ------- 0 0.0 3.0 9 13 0 0x0 0 0
- 0.85476 0 2 tcp 1000 ------- 0 0.0 3.0 10 14 0 0x0 0 0
r 0.85576 0 2 tcp 1000 ------- 0 0.0 3.0 10 14 0 0x0 0 0
+ 0.975288 0 2 tcp 1000 ------- 0 0.0 3.0 11 18 0 0x0 0 0
- 0.975288 0 2 tcp 1000 ------- 0 0.0 3.0 11 18 0 0x0 0 0
+ 0.975288 0 2 tcp 1000 ------- 0 0.0 3.0 12 19 0 0x0 0 0
r 0.976288 0 2 tcp 1000 ------- 0 0.0 3.0 11 18 0 0x0 0 0
- 0.976288 0 2 tcp 1000 ------- 0 0.0 3.0 12 19 0 0x0 0 0
r 0.977288 0 2 tcp 1000 ------- 0 0.0 3.0 12 19 0 0x0 0 0
+ 1.0752 0 2 tcp 1000 ------- 0 0.0 3.0 13 21 0 0x0 0 0
- 1.0752 0 2 tcp 1000 ------- 0 0.0 3.0 13 21 0 0x0 0 0
+ 1.0752 0 2 tcp 1000 ------- 0 0.0 3.0 14 22 0 0x0 0 0
+ 1.0752 0 2 tcp 1000 ------- 0 0.0 3.0 15 23 0 0x0 0 0
+ 1.0752 0 2 tcp 1000 ------- 0 0.0 3.0 16 24 0 0x0 0 0
r 1.0762 0 2 tcp 1000 ------- 0 0.0 3.0 13 21 0 0x0 0 0
- 1.0762 0 2 tcp 1000 ------- 0 0.0 3.0 14 22 0 0x0 0 0
r 1.0772 0 2 tcp 1000 ------- 0 0.0 3.0 14 22 0 0x0 0 0
- 1.0772 0 2 tcp 1000 ------- 0 0.0 3.0 15 23 0 0x0 0 0
r 1.0782 0 2 tcp 1000 ------- 0 0.0 3.0 15 23 0 0x0 0 0
- 1.0782 0 2 tcp 1000 ------- 0 0.0 3.0 16 24 0 0x0 0 0
r 1.0792 0 2 tcp 1000 ------- 0 0.0 3.0 16 24 0 0x0 0 0
+ 1.1752 0 2 tcp 1000 ------- 0 0.0 3.0 17 26 0 0x0 0 0
- 1.1752 0 2 tcp 1000 ------- 0 0.0 3.0 17 26 0 0x0 0 0
+ 1.1752 0 2 tcp 1000 ------- 0 0.0 3.0 18 27 0 0x0 0 0
r 1.1762 0 2 tcp 1000 ------- 0 0.0 3.0 17 26 0 0x0 0 0
- 1.1762 0 2 tcp 1000 ------- 0 0.0 3.0 18 27 0 0x0 0 0
r 1.1772 0 2 tcp 1000 ------- 0 0.0 3.0 18 27 0 0x0 0 0
+ 1.196728 0 2 tcp 1000 ------- 0 0.0 3.0 19 29 0 0x0 0 0
- 1.196728 0 2 tcp 1000 ------- 0 0.0 3.0 19 29 0 0x0 0 0
+ 1.196728 0 2 tcp 1000 ------- 0 0.0 3.0 20 30 0 0x0 0 0
+ 1.196728 0 2 tcp 1000 ------- 0 0.0 3.0 21 31 0 0x0 0 0
r 1.197728 0 2 tcp 1000 ------- 0 0.0 3.0 19 29 0 0x0 0 0
- 1.197728 0 2 tcp 1000 ------- 0 0.0 3.0 20 30 0 0x0 0 0
r 1.198728 0 2 tcp 1000 ------- 0 0.0 3.0 20 30 0 0x0 0 0
- 1.198728 0 2 tcp 1000 ------- 0 0.0 3.0 21 31 0 0x0 0 0
r 1.199728 0 2 tcp 1000 ------- 0 0.0 3.0 21 31 0 0x0 0 0
+ 1.29664 0 2 tcp 1000 ------- 0 0.0 3.0 22 34 0 0x0 0 0
- 1.29664 0 2 tcp 1000 ------- 0 0.0 3.0 22 34 0 0x0 0 0
+ 1.29664 0 2 tcp 1000 ------- 0 0.0 3.0 23 35 0 0x0 0 0
+ 1.29664 0 2 tcp 1000 ------- 0 0.0 3.0 24 36 0 0x0 0 0
r 1.29764 0 2 tcp 1000 ------- 0 0.0 3.0 22 34 0 0x0 0 0
- 1.29764 0 2 tcp 1000 ------- 0 0.0 3.0 23 35 0 0x0 0 0
r 1.29864 0 2 tcp 1000 ------- 0 0.0 3.0 23 35 0 0x0 0 0
- 1.29864 0 2 tcp 1000 ------- 0 0.0 3.0 24 36 0 0x0 0 0
r 1.29964 0 2 tcp 1000 ------- 0 0.0 3.0 24 36 0 0x0 0 0
+ 1.31664 0 2 tcp 1000 ------- 0 0.0 3.0 25 37 0 0x0 0 0
- 1.31664 0 2 tcp 1000 ------- 0 0.0 3.0 25 37 0 0x0 0 0
+ 1.31664 0 2 tcp 1000 ------- 0 0.0 3.0 26 38 0 0x0 0 0
+ 1.31664 0 2 tcp 1000 ------- 0 0.0 3.0 27 39 0 0x0 0 0
r 1.31764 0 2 tcp 1000 ------- 0 0.0 3.0 25 37 0 0x0 0 0
- 1.31764 0 2 tcp 1000 ------- 0 0.0 3.0 26 38 0 0x0 0 0
r 1.31864 0 2 tcp 1000 ------- 0 0.0 3.0 26 38 0 0x0 0 0
- 1.31864 0 2 tcp 1000 ------- 0 0.0 3.0 27 39 0 0x0 0 0
r 1.31964 0 2 tcp 1000 ------- 0 0.0 3.0 27 39 0 0x0 0 0
+ 1.39664 0 2 tcp 1000 ------- 0 0.0 3.0 28 41 0 0x0 0 0
- 1.39664 0 2 tcp 1000 ------- 0 0.0 3.0 28 41 0 0x0 0 0
+ 1.39664 0 2 tcp 1000 ------- 0 0.0 3.0 29 42 0 0x0 0 0
+ 1.39664 0 2 tcp 1000 ------- 0 0.0 3.0 30 43 0 0x0 0 0
r 1.39764 0 2 tcp 1000 ------- 0 0.0 3.0 28 41 0 0x0 0 0
- 1.39764 0 2 tcp 1000 ------- 0 0.0 3.0 29 42 0 0x0 0 0
r 1.39864 0 2 tcp 1000 ------- 0 0.0 3.0 29 42 0 0x0 0 0
- 1.39864 0 2 tcp 1000 ------- 0 0.0 3.0 30 43 0 0x0 0 0
r 1.39964 0 2 tcp 1000 ------- 0 0.0 3.0 30 43 0 0x0 0 0
+ 1.418168 0 2 tcp 1000 ------- 0 0.0 3.0 31 45 0 0x0 0 0
- 1.418168 0 2 tcp 1000 ------- 0 0.0 3.0 31 45 0 0x0 0 0
+ 1.418168 0 2 tcp 1000 ------- 0 0.0 3.0 32 46 0 0x0 0 0
+ 1.418168 0 2 tcp 1000 ------- 0 0.0 3.0 33 47 0 0x0 0 0
r 1.419168 0 2 tcp 1000 ------- 0 0.0 3.0 31 45 0 0x0 0 0
- 1.419168 0 2 tcp 1000 ------- 0 0.0 3.0 32 46 0 0x0 0 0
r 1.420168 0 2 tcp 1000 ------- 0 0.0 3.0 32 46 0 0x0 0 0
- 1.420168 0 2 tcp 1000 ------- 0 0.0 3.0 33 47 0 0x0 0 0
r 1.421168 0 2 tcp 1000 ------- 0 0.0 3.0 33 47 0 0x0 0 0
+ 1.50808 0 2 tcp 1000 ------- 0 0.0 3.0 34 51 0 0x0 0 0
- 1.50808 0 2 tcp 1000 ------- 0 0.0 3.0 34 51 0 0x0 0 0
+ 1.50808 0 2 tcp 1000 ------- 0 0.0 3.0 35 52 0 0x0 0 0
+ 1.50808 0 2 tcp 1000 ------- 0 0.0 3.0 36 53 0 0x0 0 0
r 1.50908 0 2 tcp 1000 ------- 0 0.0 3.0 34 51 0 0x0 0 0
- 1.50908 0 2 tcp 1000 ------- 0 0.0 3.0 35 52 0 0x0 0 0
r 1.51008 0 2 tcp 1000 ------- 0 0.0 3.0 35 52 0 0x0 0 0
- 1.51008 0 2 tcp 1000 ------- 0 0.0 3.0 36 53 0 0x0 0 0
r 1.51108 0 2 tcp 1000 ------- 0 0.0 3.0 36 53 0 0x0 0 0
+ 1.52808 0 2 tcp 1000 ------- 0 0.0 3.0 37 55 0 0x0 0 0
- 1.52808 0 2 tcp 1000 ------- 0 0.0 3.0 37 55 0 0x0 0 0
+ 1.52808 0 2 tcp 1000 ------- 0 0.0 3.0 38 56 0 0x0 0 0
+ 1.52808 0 2 tcp 1000 ------- 0 0.0 3.0 39 57 0 0x0 0 0
r 1.52908 0 2 tcp 1000 ------- 0 0.0 3.0 37 55 0 0x0 0 0
- 1.52908 0 2 tcp 1000 ------- 0 0.0 3.0 38 56 0 0x0 0 0
r 1.53008 0 2 tcp 1000 ------- 0 0.0 3.0 38 56 0 0x0 0 0
- 1.53008 0 2 tcp 1000 ------- 0 0.0 3.0 39 57 0 0x0 0 0
r 1.53108 0 2 tcp 1000 ------- 0 0.0 3.0 39 57 0 0x0 0 0
+ 1.54808 0 2 tcp 1000 ------- 0 0.0 3.0 40 59 0 0x0 0 0
- 1.54808 0 2 tcp 1000 ------- 0 0.0 3.0 40 59 0 0x0 0 0
+ 1.54808 0 2 tcp 1000 ------- 0 0.0 3.0 41 60 0 0x0 0 0
+ 1.54808 0 2 tcp 1000 ------- 0 0.0 3.0 42 61 0 0x0 0 0
r 1.54908 0 2 tcp 1000 ------- 0 0.0 3.0 40 59 0 0x0 0 0
- 1.54908 0 2 tcp 1000 ------- 0 0.0 3.0 41 60 0 0x0 0 0
r 1.55008 0 2 tcp 1000 ------- 0 0.0 3.0 41 60 0 0x0 0 0
- 1.55008 0 2 tcp 1000 ------- 0 0.0 3.0 42 61 0 0x0 0 0
r 1.55108 0 2 tcp 1000 ------- 0 0.0 3.0 42 61 0 0x0 0 0
+ 1.60808 0 2 tcp 1000 ------- 0 0.0 3.0 43 62 0 0x0 0 0
- 1.60808 0 2 tcp 1000 ------- 0 0.0 3.0 43 62 0 0x0 0 0
+ 1.60808 0 2 tcp 1000 ------- 0 0.0 3.0 44 63 0 0x0 0 0
+ 1.60808 0 2 tcp 1000 ------- 0 0.0 3.0 45 64 0 0x0 0 0
r 1.60908 0 2 tcp 1000 ------- 0 0.0 3.0 43 62 0 0x0 0 0
- 1.60908 0 2 tcp 1000 ------- 0 0.0 3.0 44 63 0 0x0 0 0
r 1.61008 0 2 tcp 1000 ------- 0 0.0 3.0 44 63 0 0x0 0 0
- 1.61008 0 2 tcp 1000 ------- 0 0.0 3.0 45 64 0 0x0 0 0
r 1.61108 0 2 tcp 1000 ------- 0 0.0 3.0 45 64 0 0x0 0 0
+ 1.62808 0 2 tcp 1000 ------- 0 0.0 3.0 46 66 0 0x0 0 0
- 1.62808 0 2 tcp 1000 ------- 0 0.0 3.0 46 66 0 0x0 0 0
+ 1.62808 0 2 tcp 1000 ------- 0 0.0 3.0 47 67 0 0x0 0 0
+ 1.62808 0 2 tcp 1000 ------- 0 0.0 3.0 48 68 0 0x0 0 0
r 1.62908 0 2 tcp 1000 ------- 0 0.0 3.0 46 66 0 0x0 0 0
- 1.62908 0 2 tcp 1000 ------- 0 0.0 3.0 47 67 0 0x0 0 0
r 1.63008 0 2 tcp 1000 ------- 0 0.0 3.0 47 67 0 0x0 0 0
- 1.63008 0 2 tcp 1000 ------- 0 0.0 3.0 48 68 0 0x0 0 0
r 1.63108 0 2 tcp 1000 ------- 0 0.0 3.0 48 68 0 0x0 0 0
+ 1.64808 0 2 tcp 1000 ------- 0 0.0 3.0 49 70 0 0x0 0 0
- 1.64808 0 2 tcp 1000 ------- 0 0.0 3.0 49 70 0 0x0 0 0
+ 1.64808 0 2 tcp 1000 ------- 0 0.0 3.0 50 71 0 0x0 0 0
+ 1.64808 0 2 tcp 1000 ------- 0 0.0 3.0 51 72 0 0x0 0 0
r 1.64908 0 2 tcp 1000 ------- 0 0.0 3.0 49 70 0 0x0 0 0
- 1.64908 0 2 tcp 1000 ------- 0 0.0 3.0 50 71 0 0x0 0 0
r 1.65008 0 2 tcp 1000 ------- 0 0.0 3.0 50 71 0 0x0 0 0
- 1.65008 0 2 tcp 1000 ------- 0 0.0 3.0 51 72 0 0x0 0 0
r 1.65108 0 2 tcp 1000 ------- 0 0.0 3.0 51 72 0 0x0 0 0
+ 1.71952 0 2 tcp 1000 ------- 0 0.0 3.0 52 76 0 0x0 0 0
- 1.71952 0 2 tcp 1000 ------- 0 0.0 3.0 52 76 0 0x0 0 0
+ 1.71952 0 2 tcp 1000 ------- 0 0.0 3.0 53 77 0 0x0 0 0
+ 1.71952 0 2 tcp 1000 ------- 0 0.0 3.0 54 78 0 0x0 0 0
r 1.72052 0 2 tcp 1000 ------- 0 0.0 3.0 52 76 0 0x0 0 0
- 1.72052 0 2 tcp 1000 ------- 0 0.0 3.0 53 77 0 0x0 0 0
r 1.72152 0 2 tcp 1000 ------- 0 0.0 3.0 53 77 0 0x0 0 0
- 1.72152 0 2 tcp 1000 ------- 0 0.0 3.0 54 78 0 0x0 0 0
r 1.72252 0 2 tcp 1000 ------- 0 0.0 3.0 54 78 0 0x0 0 0
+ 1.73952 0 2 tcp 1000 ------- 0 0.0 3.0 55 80 0 0x0 0 0
- 1.73952 0 2 tcp 1000 ------- 0 0.0 3.0 55 80 0 0x0 0 0
+ 1.73952 0 2 tcp 1000 ------- 0 0.0 3.0 56 81 0 0x0 0 0
+ 1.73952 0 2 tcp 1000 ------- 0 0.0 3.0 57 82 0 0x0 0 0
r 1.74052 0 2 tcp 1000 ------- 0 0.0 3.0 55 80 0 0x0 0 0
- 1.74052 0 2 tcp 1000 ------- 0 0.0 3.0 56 81 0 0x0 0 0
r 1.74152 0 2 tcp 1000 ------- 0 0.0 3.0 56 81 0 0x0 0 0
- 1.74152 0 2 tcp 1000 ------- 0 0.0 3.0 57 82 0 0x0 0 0
r 1.74252 0 2 tcp 1000 ------- 0 0.0 3.0 57 82 0 0x0 0 0
+ 1.75952 0 2 tcp 1000 ------- 0 0.0 3.0 58 84 0 0x0 0 0
- 1.75952 0 2 tcp 1000 ------- 0 0.0 3.0 58 84 0 0x0 0 0
+ 1.75952 0 2 tcp 1000 ------- 0 0.0 3.0 59 85 0 0x0 0 0
+ 1.75952 0 2 tcp 1000 ------- 0 0.0 3.0 60 86 0 0x0 0 0
r 1.76052 0 2 tcp 1000 ------- 0 0.0 3.0 58 84 0 0x0 0 0
- 1.76052 0 2 tcp 1000 ------- 0 0.0 3.0 59 85 0 0x0 0 0
r 1.76152 0 2 tcp 1000 ------- 0 0.0 3.0 59 85 0 0x0 0 0
- 1.76152 0 2 tcp 1000 ------- 0 0.0 3.0 60 86 0 0x0 0 0
r 1.76252 0 2 tcp 1000 ------- 0 0.0 3.0 60 86 0 0x0 0 0
+ 1.77952 0 2 tcp 1000 ------- 0 0.0 3.0 61 88 0 0x0 0 0
- 1.77952 0 2 tcp 1000 ------- 0 0.0 3.0 61 88 0 0x0 0 0
+ 1.77952 0 2 tcp 1000 ------- 0 0.0 3.0 62 89 0 0x0 0 0
+ 1.77952 0 2 tcp 1000 ------- 0 0.0 3.0 63 90 0 0x0 0 0
r 1.78052 0 2 tcp 1000 ------- 0 0.0 3.0 61 88 0 0x0 0 0
- 1.78052 0 2 tcp 1000 ------- 0 0.0 3.0 62 89 0 0x0 0 0
r 1.78152 0 2 tcp 1000 ------- 0 0.0 3.0 62 89 0 0x0 0 0
- 1.78152 0 2 tcp 1000 ------- 0 0.0 3.0 63 90 0 0x0 0 0
r 1.78252 0 2 tcp 1000 ------- 0 0.0 3.0 63 90 0 0x0 0 0
+ 1.79952 0 2 tcp 1000 ------- 0 0.0 3.0 64 92 0 0x0 0 0
- 1.79952 0 2 tcp 1000 ------- 0 0.0 3.0 64 92 0 0x0 0 0
+ 1.79952 0 2 tcp 1000 ------- 0 0.0 3.0 65 93 0 0x0 0 0
+ 1.79952 0 2 tcp 1000 ------- 0 0.0 3.0 66 94 0 0x0 0 0
r 1.80052 0 2 tcp 1000 ------- 0 0.0 3.0 64 92 0 0x0 0 0
- 1.80052 0 2 tcp 1000 ------- 0 0.0 3.0 65 93 0 0x0 0 0
r 1.80152 0 2 tcp 1000 ------- 0 0.0 3.0 65 93 0 0x0 0 0
- 1.80152 0 2 tcp 1000 ------- 0 0.0 3.0 66 94 0 0x0 0 0
r 1.80252 0 2 tcp 1000 ------- 0 0.0 3.0 66 94 0 0x0 0 0
+ 1.82952 0 2 tcp 1000 ------- 0 0.0 3.0 67 95 0 0x0 0 0
- 1.82952 0 2 tcp 1000 ------- 0 0.0 3.0 67 95 0 0x0 0 0
+ 1.82952 0 2 tcp 1000 ------- 0 0.0 3.0 68 96 0 0x0 0 0
+ 1.82952 0 2 tcp 1000 ------- 0 0.0 3.0 69 97 0 0x0 0 0
r 1.83052 0 2 tcp 1000 ------- 0 0.0 3.0 67 95 0 0x0 0 0
- 1.83052 0 2 tcp 1000 ------- 0 0.0 3.0 68 96 0 0x0 0 0
r 1.83152 0 2 tcp 1000 ------- 0 0.0 3.0 68 96 0 0x0 0 0
- 1.83152 0 2 tcp 1000 ------- 0 0.0 3.0 69 97 0 0x0 0 0
r 1.83252 0 2 tcp 1000 ------- 0 0.0 3.0 69 97 0 0x0 0 0
+ 1.84952 0 2 tcp 1000 ------- 0 0.0 3.0 70 99 0 0x0 0 0
- 1.84952 0 2 tcp 1000 ------- 0 0.0 3.0 70 99 0 0x0 0 0
+ 1.84952 0 2 tcp 1000 ------- 0 0.0 3.0 71 100 0 0x0 0 0
r 1.85052 0 2 tcp 1000 ------- 0 0.0 3.0 70 99 0 0x0 0 0
- 1.85052 0 2 tcp 1000 ------- 0 0.0 3.0 71 100 0 0x0 0 0
r 1.85152 0 2 tcp 1000 ------- 0 0.0 3.0 71 100 0 0x0 0 0
+ 1.86952 0 2 tcp 1000 ------- 0 0.0 3.0 72 102 0 0x0 0 0
- 1.86952 0 2 tcp 1000 ------- 0 0.0 3.0 72 102 0 0x0 0 0
+ 1.86952 0 2 tcp 1000 ------- 0 0.0 3.0 73 103 0 0x0 0 0
r 1.87052 0 2 tcp 1000 ------- 0 0.0 3.0 72 102 0 0x0 0 0
- 1.87052 0 2 tcp 1000 ------- 0 0.0 3.0 73 103 0 0x0 0 0
r 1.87152 0 2 tcp 1000 ------- 0 0.0 3.0 73 103 0 0x0 0 0
+ 1.88952 0 2 tcp 1000 ------- 0 0.0 3.0 74 105 0 0x0 0 0
- 1.88952 0 2 tcp 1000 ------- 0 0.0 3.0 74 105 0 0x0 0 0
+ 1.88952 0 2 tcp 1000 ------- 0 0.0 3.0 75 106 0 0x0 0 0
r 1.89052 0 2 tcp 1000 ------- 0 0.0 3.0 74 105 0 0x0 0 0
- 1.89052 0 2 tcp 1000 ------- 0 0.0 3.0 75 106 0 0x0 0 0
r 1.89152 0 2 tcp 1000 ------- 0 0.0 3.0 75 106 0 0x0 0 0
+ 1.93096 0 2 tcp 1000 ------- 0 0.0 3.0 76 110 0 0x0 0 0
- 1.93096 0 2 tcp 1000 ------- 0 0.0 3.0 76 110 0 0x0 0 0
+ 1.93096 0 2 tcp 1000 ------- 0 0.0 3.0 77 111 0 0x0 0 0
r 1.93196 0 2 tcp 1000 ------- 0 0.0 3.0 76 110 0 0x0 0 0
- 1.93196 0 2 tcp 1000 ------- 0 0.0 3.0 77 111 0 0x0 0 0
r 1.93296 0 2 tcp 1000 ------- 0 0.0 3.0 77 111 0 0x0 0 0
+ 1.95096 0 2 tcp 1000 ------- 0 0.0 3.0 78 113 0 0x0 0 0
- 1.95096 0 2 tcp 1000 ------- 0 0.0 3.0 78 113 0 0x0 0 0
+ 1.95096 0 2 tcp 1000 ------- 0 0.0 3.0 79 114 0 0x0 0 0
r 1.95196 0 2 tcp 1000 ------- 0 0.0 3.0 78 113 0 0x0 0 0
- 1.95196 0 2 tcp 1000 ------- 0 0.0 3.0 79 114 0 0x0 0 0
r 1.95296 0 2 tcp 1000 ------- 0 0.0 3.0 79 114 0 0x0 0 0
+ 1.97096 0 2 tcp 1000 ------- 0 0.0 3.0 80 116 0 0x0 0 0
- 1.97096 0 2 tcp 1000 ------- 0 0.0 3.0 80 116 0 0x0 0 0
+ 1.97096 0 2 tcp 1000 ------- 0 0.0 3.0 81 117 0 0x0 0 0
r 1.97196 0 2 tcp 1000 ------- 0 0.0 3.0 80 116 0 0x0 0 0
- 1.97196 0 2 tcp 1000 ------- 0 0.0 3.0 81 117 0 0x0 0 0
r 1.97296 0 2 tcp 1000 ------- 0 0.0 3.0 81 117 0 0x0 0 0
+ 1.99096 0 2 tcp 1000 ------- 0 0.0 3.0 82 119 0 0x0 0 0
- 1.99096 0 2 tcp 1000 ------- 0 0.0 3.0 82 119 0 0x0 0 0
+ 1.99096 0 2 tcp 1000 ------- 0 0.0 3.0 83 120 0 0x0 0 0
r 1.99196 0 2 tcp 1000 ------- 0 0.0 3.0 82 119 0 0x0 0 0
- 1.99196 0 2 tcp 1000 ------- 0 0.0 3.0 83 120 0 0x0 0 0
r 1.99296 0 2 tcp 1000 ------- 0 0.0 3.0 83 120 0 0x0 0 0
+ 2.01096 0 2 tcp 1000 ------- 0 0.0 3.0 84 122 0 0x0 0 0
- 2.01096 0 2 tcp 1000 ------- 0 0.0 3.0 84 122 0 0x0 0 0
+ 2.01096 0 2 tcp 1000 ------- 0 0.0 3.0 85 123 0 0x0 0 0
r 2.01196 0 2 tcp 1000 ------- 0 0.0 3.0 84 122 0 0x0 0 0
- 2.01196 0 2 tcp 1000 ------- 0 0.0 3.0 85 123 0 0x0 0 0
r 2.01296 0 2 tcp 1000 ------- 0 0.0 3.0 85 123 0 0x0 0 0
+ 2.03096 0 2 tcp 1000 ------- 0 0.0 3.0 86 125 0 0x0 0 0
- 2.03096 0 2 tcp 1000 ------- 0 0.0 3.0 86 125 0 0x0 0 0
+ 2.03096 0 2 tcp 1000 ------- 0 0.0 3.0 87 126 0 0x0 0 0
r 2.03196 0 2 tcp 1000 ------- 0 0.0 3.0 86 125 0 0x0 0 0
- 2.03196 0 2 tcp 1000 ------- 0 0.0 3.0 87 126 0 0x0 0 0
r 2.03296 0 2 tcp 1000 ------- 0 0.0 3.0 87 126 0 0x0 0 0
+ 2.05096 0 2 tcp 1000 ------- 0 0.0 3.0 88 128 0 0x0 0 0
- 2.05096 0 2 tcp 1000 ------- 0 0.0 3.0 88 128 0 0x0 0 0
+ 2.05096 0 2 tcp 1000 ------- 0 0.0 3.0 89 129 0 0x0 0 0
r 2.05196 0 2 tcp 1000 ------- 0 0.0 3.0 88 128 0 0x0 0 0
- 2.05196 0 2 tcp 1000 ------- 0 0.0 3.0 89 129 0 0x0 0 0
r 2.05296 0 2 tcp 1000 ------- 0 0.0 3.0 89 129 0 0x0 0 0
