+ 0.30084 2 0 ack 40 ------- 0 3.0 0.0 0 1 0 0x0 0 0
- 0.30084 2 0 ack 40 ------- 0 3.0 0.0 0 1 0 0x0 0 0
r 0.30088 2 0 ack 40 ------- 0 3.0 0.0 0 1 0 0x0 0 0
+ 0.52228 2 0 ack 40 ------- 0 3.0 0.0 2 4 0 0x0 0 0
- 0.52228 2 0 ack 40 ------- 0 3.0 0.0 2 4 0 0x0 0 0
r 0.52232 2 0 ack 40 ------- 0 3.0 0.0 2 4 0 0x0 0 0
+ 0.74372 2 0 ack 40 ------- 0 3.0 0.0 4 8 0 0x0 0 0
- 0.74372 2 0 ack 40 ------- 0 3.0 0.0 4 8 0 0x0 0 0
r 0.74376 2 0 ack 40 ------- 0 3.0 0.0 4 8 0 0x0 0 0
+ 0.85372 2 0 ack 40 ------- 0 3.0 0.0 5 12 0 0x0 0 0
- 0.85372 2 0 ack 40 ------- 0 3.0 0.0 5 12 0 0x0 0 0
r 0.85376 2 0 ack 40 ------- 0 3.0 0.0 5 12 0 0x0 0 0
+ 0.97524 2 0 ack 48 ------- 0 3.0 0.0 6 15 0 0x0 0 1
- 0.97524 2 0 ack 48 ------- 0 3.0 0.0 6 15 0 0x0 0 1
r 0.975288 2 0 ack 48 ------- 0 3.0 0.0 6 15 0 0x0 0 1
+ 1.06524 2 0 ack 48 ------- 0 3.0 0.0 6 16 0 0x0 0 1
- 1.06524 2 0 ack 48 ------- 0 3.0 0.0 6 16 0 0x0 0 1
r 1.065288 2 0 ack 48 ------- 0 3.0 0.0 6 16 0 0x0 0 1
+ 1.07516 2 0 ack 40 ------- 0 3.0 0.0 9 17 0 0x0 0 0
- 1.07516 2 0 ack 40 ------- 0 3.0 0.0 9 17 0 0x0 0 0
r 1.0752 2 0 ack 40 ------- 0 3.0 0.0 9 17 0 0x0 0 0
+ 1.17516 2 0 ack 40 ------- 0 3.0 0.0 10 20 0 0x0 0 0
- 1.17516 2 0 ack 40 ------- 0 3.0 0.0 10 20 0 0x0 0 0
r 1.1752 2 0 ack 40 ------- 0 3.0 0.0 10 20 0 0x0 0 0
+ 1.196688 2 0 ack 40 ------- 0 3.0 0.0 12 25 0 0x0 0 0
- 1.196688 2 0 ack 40 ------- 0 3.0 0.0 12 25 0 0x0 0 0
r 1.196728 2 0 ack 40 ------- 0 3.0 0.0 12 25 0 0x0 0 0
+ 1.2966 2 0 ack 40 ------- 0 3.0 0.0 14 28 0 0x0 0 0
- 1.2966 2 0 ack 40 ------- 0 3.0 0.0 14 28 0 0x0 0 0
r 1.29664 2 0 ack 40 ------- 0 3.0 0.0 14 28 0 0x0 0 0
+ 1.3166 2 0 ack 40 ------- 0 3.0 0.0 16 32 0 0x0 0 0
- 1.3166 2 0 ack 40 ------- 0 3.0 0.0 16 32 0 0x0 0 0
r 1.31664 2 0 ack 40 ------- 0 3.0 0.0 16 32 0 0x0 0 0
+ 1.3966 2 0 ack 40 ------- 0 3.0 0.0 18 33 0 0x0 0 0
- 1.3966 2 0 ack 40 ------- 0 3.0 0.0 18 33 0 0x0 0 0
r 1.39664 2 0 ack 40 ------- 0 3.0 0.0 18 33 0 0x0 0 0
+ 1.418128 2 0 ack 40 ------- 0 3.0 0.0 20 40 0 0x0 0 0
- 1.418128 2 0 ack 40 ------- 0 3.0 0.0 20 40 0 0x0 0 0
r 1.418168 2 0 ack 40 ------- 0 3.0 0.0 20 40 0 0x0 0 0
+ 1.50804 2 0 ack 40 ------- 0 3.0 0.0 22 44 0 0x0 0 0
- 1.50804 2 0 ack 40 ------- 0 3.0 0.0 22 44 0 0x0 0 0
r 1.50808 2 0 ack 40 ------- 0 3.0 0.0 22 44 0 0x0 0 0
+ 1.52804 2 0 ack 40 ------- 0 3.0 0.0 24 48 0 0x0 0 0
- 1.52804 2 0 ack 40 ------- 0 3.0 0.0 24 48 0 0x0 0 0
r 1.52808 2 0 ack 40 ------- 0 3.0 0.0 24 48 0 0x0 0 0
+ 1.54804 2 0 ack 40 ------- 0 3.0 0.0 26 49 0 0x0 0 0
- 1.54804 2 0 ack 40 ------- 0 3.0 0.0 26 49 0 0x0 0 0
r 1.54808 2 0 ack 40 ------- 0 3.0 0.0 26 49 0 0x0 0 0
+ 1.60804 2 0 ack 40 ------- 0 3.0 0.0 28 50 0 0x0 0 0
- 1.60804 2 0 ack 40 ------- 0 3.0 0.0 28 50 0 0x0 0 0
r 1.60808 2 0 ack 40 ------- 0 3.0 0.0 28 50 0 0x0 0 0
+ 1.62804 2 0 ack 40 ------- 0 3.0 0.0 30 54 0 0x0 0 0
- 1.62804 2 0 ack 40 ------- 0 3.0 0.0 30 54 0 0x0 0 0
r 1.62808 2 0 ack 40 ------- 0 3.0 0.0 30 54 0 0x0 0 0
+ 1.64804 2 0 ack 40 ------- 0 3.0 0.0 32 58 0 0x0 0 0
- 1.64804 2 0 ack 40 ------- 0 3.0 0.0 32 58 0 0x0 0 0
r 1.64808 2 0 ack 40 ------- 0 3.0 0.0 32 58 0 0x0 0 0
+ 1.71948 2 0 ack 40 ------- 0 3.0 0.0 34 65 0 0x0 0 0
- 1.71948 2 0 ack 40 ------- 0 3.0 0.0 34 65 0 0x0 0 0
r 1.71952 2 0 ack 40 ------- 0 3.0 0.0 34 65 0 0x0 0 0
+ 1.73948 2 0 ack 40 ------- 0 3.0 0.0 36 69 0 0x0 0 0
- 1.73948 2 0 ack 40 ------- 0 3.0 0.0 36 69 0 0x0 0 0
r 1.73952 2 0 ack 40 ------- 0 3.0 0.0 36 69 0 0x0 0 0
+ 1.75948 2 0 ack 40 ------- 0 3.0 0.0 38 73 0 0x0 0 0
- 1.75948 2 0 ack 40 ------- 0 3.0 0.0 38 73 0 0x0 0 0
r 1.75952 2 0 ack 40 ------- 0 3.0 0.0 38 73 0 0x0 0 0
+ 1.77948 2 0 ack 40 ------- 0 3.0 0.0 40 74 0 0x0 0 0
- 1.77948 2 0 ack 40 ------- 0 3.0 0.0 40 74 0 0x0 0 0
r 1.77952 2 0 ack 40 ------- 0 3.0 0.0 40 74 0 0x0 0 0
+ 1.79948 2 0 ack 40 ------- 0 3.0 0.0 42 75 0 0x0 0 0
- 1.79948 2 0 ack 40 ------- 0 3.0 0.0 42 75 0 0x0 0 0
r 1.79952 2 0 ack 40 ------- 0 3.0 0.0 42 75 0 0x0 0 0
+ 1.82948 2 0 ack 40 ------- 0 3.0 0.0 44 79 0 0x0 0 0
- 1.82948 2 0 ack 40 ------- 0 3.0 0.0 44 79 0 0x0 0 0
r 1.82952 2 0 ack 40 ------- 0 3.0 0.0 44 79 0 0x0 0 0
+ 1.84948 2 0 ack 40 ------- 0 3.0 0.0 46 83 0 0x0 0 0
- 1.84948 2 0 ack 40 ------- 0 3.0 0.0 46 83 0 0x0 0 0
r 1.84952 2 0 ack 40 ------- 0 3.0 0.0 46 83 0 0x0 0 0
+ 1.86948 2 0 ack 40 ------- 0 3.0 0.0 48 87 0 0x0 0 0
- 1.86948 2 0 ack 40 ------- 0 3.0 0.0 48 87 0 0x0 0 0
r 1.86952 2 0 ack 40 ------- 0 3.0 0.0 48 87 0 0x0 0 0
+ 1.88948 2 0 ack 40 ------- 0 3.0 0.0 50 91 0 0x0 0 0
- 1.88948 2 0 ack 40 ------- 0 3.0 0.0 50 91 0 0x0 0 0
r 1.88952 2 0 ack 40 ------- 0 3.0 0.0 50 91 0 0x0 0 0
+ 1.93092 2 0 ack 40 ------- 0 3.0 0.0 52 98 0 0x0 0 0
- 1.93092 2 0 ack 40 ------- 0 3.0 0.0 52 98 0 0x0 0 0
r 1.93096 2 0 ack 40 ------- 0 3.0 0.0 52 98 0 0x0 0 0
+ 1.95092 2 0 ack 40 ------- 0 3.0 0.0 54 101 0 0x0 0 0
- 1.95092 2 0 ack 40 ------- 0 3.0 0.0 54 101 0 0x0 0 0
r 1.95096 2 0 ack 40 ------- 0 3.0 0.0 54 101 0 0x0 0 0
+ 1.97092 2 0 ack 40 ------- 0 3.0 0.0 56 104 0 0x0 0 0
- 1.97092 2 0 ack 40 ------- 0 3.0 0.0 56 104 0 0x0 0 0
r 1.97096 2 0 ack 40 ------- 0 3.0 0.0 56 104 0 0x0 0 0
+ 1.99092 2 0 ack 40 ------- 0 3.0 0.0 58 107 0 0x0 0 0
- 1.99092 2 0 ack 40 ------- 0 3.0 0.0 58 107 0 0x0 0 0
r 1.99096 2 0 ack 40 ------- 0 3.0 0.0 58 107 0 0x0 0 0
+ 2.01092 2 0 ack 40 ------- 0 3.0 0.0 60 108 0 0x0 0 0
- 2.01092 2 0 ack 40 ------- 0 3.0 0.0 60 108 0 0x0 0 0
r 2.01096 2 0 ack 40 ------- 0 3.0 0.0 60 108 0 0x0 0 0
+ 2.03092 2 0 ack 40 ------- 0 3.0 0.0 62 109 0 0x0 0 0
- 2.03092 2 0 ack 40 ------- 0 3.0 0.0 62 109 0 0x0 0 0
r 2.03096 2 0 ack 40 ------- 0 3.0 0.0 62 109 0 0x0 0 0
+ 2.05092 2 0 ack 40 ------- 0 3.0 0.0 64 112 0 0x0 0 0
- 2.05092 2 0 ack 40 ------- 0 3.0 0.0 64 112 0 0x0 0 0
r 2.05096 2 0 ack 40 ------- 0 3.0 0.0 64 112 0 0x0 0 0
+ 2.07092 2 0 ack 40 ------- 0 3.0 0.0 66 115 0 0x0 0 0
- 2.07092 2 0 ack 40 ------- 0 3.0 0.0 66 115 0 0x0 0 0
r 2.07096 2 0 ack 40 ------- 0 3.0 0.0 66 115 0 0x0 0 0
+ 2.09092 2 0 ack 40 ------- 0 3.0 0.0 68 118 0 0x0 0 0
- 2.09092 2 0 ack 40 ------- 0 3.0 0.0 68 118 0 0x0 0 0
r 2.09096 2 0 ack 40 ------- 0 3.0 0.0 68 118 0 0x0 0 0
+ 2.11092 2 0 ack 40 ------- 0 3.0 0.0 70 121 0 0x0 0 0
- 2.11092 2 0 ack 40 ------- 0 3.0 0.0 70 121 0 0x0 0 0
r 2.11096 2 0 ack 40 ------- 0 3.0 0.0 70 121 0 0x0 0 0
+ 2.13092 2 0 ack 40 ------- 0 3.0 0.0 72 124 0 0x0 0 0
- 2.13092 2 0 ack 40 ------- 0 3.0 0.0 72 124 0 0x0 0 0
r 2.13096 2 0 ack 40 ------- 0 3.0 0.0 72 124 0 0x0 0 0
+ 2.15092 2 0 ack 40 ------- 0 3.0 0.0 74 127 0 0x0 0 0
- 2.15092 2 0 ack 40 ------- 0 3.0 0.0 74 127 0 0x0 0 0
r 2.15096 2 0 ack 40 ------- 0 3.0 0.0 74 127 0 0x0 0 0
+ 2.17092 2 0 ack 40 ------- 0 3.0 0.0 76 130 0 0x0 0 0
- 2.17092 2 0 ack 40 ------- 0 3.0 0.0 76 130 0 0x0 0 0
r 2.17096 2 0 ack 40 ------- 0 3.0 0.0 76 130 0 0x0 0 0
+ 2.19092 2 0 ack 40 ------- 0 3.0 0.0 78 131 0 0x0 0 0
- 2.19092 2 0 ack 40 ------- 0 3.0 0.0 78 131 0 0x0 0 0
r 2.19096 2 0 ack 40 ------- 0 3.0 0.0 78 131 0 0x0 0 0
+ 2.21092 2 0 ack 40 ------- 0 3.0 0.0 80 132 0 0x0 0 0
- 2.21092 2 0 ack 40 ------- 0 3.0 0.0 80 132 0 0x0 0 0
r 2.21096 2 0 ack 40 ------- 0 3.0 0.0 80 132 0 0x0 0 0
+ 2.23092 2 0 ack 40 ------- 0 3.0 0.0 82 133 0 0x0 0 0
- 2.23092 2 0 ack 40 ------- 0 3.0 0.0 82 133 0 0x0 0 0
r 2.23096 2 0 ack 40 ------- 0 3.0 0.0 82 133 0 0x0 0 0
+ 2.25092 2 0 ack 40 ------- 0 3.0 0.0 84 134 0 0x0 0 0
- 2.25092 2 0 ack 40 ------- 0 3.0 0.0 84 134 0 0x0 0 0
r 2.25096 2 0 ack 40 ------- 0 3.0 0.0 84 134 0 0x0 0 0
+ 2.27092 2 0 ack 40 ------- 0 3.0 0.0 86 135 0 0x0 0 0
- 2.27092 2 0 ack 40 ------- 0 3.0 0.0 86 135 0 0x0 0 0
r 2.27096 2 0 ack 40 ------- 0 3.0 0.0 86 135 0 0x0 0 0
+ 2.29092 2 0 ack 40 ------- 0 3.0 0.0 88 136 0 0x0 0 0
- 2.29092 2 0 ack 40 ------- 0 3.0 0.0 88 136 0 0x0 0 0
r 2.29096 2 0 ack 40 ------- 0 3.0 0.0 88 136 0 0x0 0 0
+ 2.40092 2 0 ack 40 ------- 0 3.0 0.0 89 137 0 0x0 0 0
- 2.40092 2 0 ack 40 ------- 0 3.0 0.0 89 137 0 0x0 0 0
r 2.40096 2 0 ack 40 ------- 0 3.0 0.0 89 137 0 0x0 0 0
