+ 0 0 2 tcp 40 ------- 0 0.0 3.0 0 0 0 0x0 0 0
- 0 0 2 tcp 40 ------- 0 0.0 3.0 0 0 0 0x0 0 0
r 4e-05 0 2 tcp 40 ------- 0 0.0 3.0 0 0 0 0x0 0 0
+ 4e-05 2 3 tcp 40 ------- 0 0.0 3.0 0 0 0 0x0 0 0
- 4e-05 2 3 tcp 40 ------- 0 0.0 3.0 0 0 0 0x0 0 0
r 0.10044 2 3 tcp 40 ------- 0 0.0 3.0 0 0 0 0x0 0 0
+ 0.20044 3 2 ack 40 ------- 0 3.0 0.0 0 1 0 0x0 0 0
- 0.20044 3 2 ack 40 ------- 0 3.0 0.0 0 1 0 0x0 0 0
r 0.30084 3 2 ack 40 ------- 0 3.0 0.0 0 1 0 0x0 0 0
+ 0.30084 2 0 ack 40 ------- 0 3.0 0.0 0 1 0 0x0 0 0
- 0.30084 2 0 ack 40 ------- 0 3.0 0.0 0 1 0 0x0 0 0
r 0.30088 2 0 ack 40 ------- 0 3.0 0.0 0 1 0 0x0 0 0
+ 0.30088 0 2 tcp 1000 ------- 0 0.0 3.0 1 2 0 0x0 0 0
- 0.30088 0 2 tcp 1000 ------- 0 0.0 3.0 1 2 0 0x0 0 0
+ 0.30088 0 2 tcp 1000 ------- 0 0.0 3.0 2 3 0 0x0 0 0
r 0.30188 0 2 tcp 1000 ------- 0 0.0 3.0 1 2 0 0x0 0 0
+ 0.30188 2 3 tcp 1000 ------- 0 0.0 3.0 1 2 0 0x0 0 0
- 0.30188 2 3 tcp 1000 ------- 0 0.0 3.0 1 2 0 0x0 0 0
- 0.30188 0 2 tcp 1000 ------- 0 0.0 3.0 2 3 0 0x0 0 0
r 0.30288 0 2 tcp 1000 ------- 0 0.0 3.0 2 3 0 0x0 0 0
+ 0.30288 2 3 tcp 1000 ------- 0 0.0 3.0 2 3 0 0x0 0 0
- 0.31188 2 3 tcp 1000 ------- 0 0.0 3.0 2 3 0 0x0 0 0
r 0.41188 2 3 tcp 1000 ------- 0 0.0 3.0 1 2 0 0x0 0 0
r 0.42188 2 3 tcp 1000 ------- 0 0.0 3.0 2 3 0 0x0 0 0
+ 0.42188 3 2 ack 40 ------- 0 3.0 0.0 2 4 0 0x0 0 0
- 0.42188 3 2 ack 40 ------- 0 3.0 0.0 2 4 0 0x0 0 0
r 0.52228 3 2 ack 40 ------- 0 3.0 0.0 2 4 0 0x0 0 0
+ 0.52228 2 0 ack 40 ------- 0 3.0 0.0 2 4 0 0x0 0 0
- 0.52228 2 0 ack 40 ------- 0 3.0 0.0 2 4 0 0x0 0 0
r 0.52232 2 0 ack 40 ------- 0 3.0 0.0 2 4 0 0x0 0 0
+ 0.52232 0 2 tcp 1000 ------- 0 0.0 3.0 3 5 0 0x0 0 0
- 0.52232 0 2 tcp 1000 ------- 0 0.0 3.0 3 5 0 0x0 0 0
+ 0.52232 0 2 tcp 1000 ------- 0 0.0 3.0 4 6 0 0x0 0 0
+ 0.52232 0 2 tcp 1000 ------- 0 0.0 3.0 5 7 0 0x0 0 0
r 0.52332 0 2 tcp 1000 ------- 0 0.0 3.0 3 5 0 0x0 0 0
+ 0.52332 2 3 tcp 1000 ------- 0 0.0 3.0 3 5 0 0x0 0 0
- 0.52332 2 3 tcp 1000 ------- 0 0.0 3.0 3 5 0 0x0 0 0
- 0.52332 0 2 tcp 1000 ------- 0 0.0 3.0 4 6 0 0x0 0 0
r 0.52432 0 2 tcp 1000 ------- 0 0.0 3.0 4 6 0 0x0 0 0
+ 0.52432 2 3 tcp 1000 ------- 0 0.0 3.0 4 6 0 0x0 0 0
- 0.52432 0 2 tcp 1000 ------- 0 0.0 3.0 5 7 0 0x0 0 0
r 0.52532 0 2 tcp 1000 ------- 0 0.0 3.0 5 7 0 0x0 0 0
+ 0.52532 2 3 tcp 1000 ------- 0 0.0 3.0 5 7 0 0x0 0 0
- 0.53332 2 3 tcp 1000 ------- 0 0.0 3.0 4 6 0 0x0 0 0
- 0.54332 2 3 tcp 1000 ------- 0 0.0 3.0 5 7 0 0x0 0 0
r 0.63332 2 3 tcp 1000 ------- 0 0.0 3.0 3 5 0 0x0 0 0
r 0.64332 2 3 tcp 1000 ------- 0 0.0 3.0 4 6 0 0x0 0 0
+ 0.64332 3 2 ack 40 ------- 0 3.0 0.0 4 8 0 0x0 0 0
- 0.64332 3 2 ack 40 ------- 0 3.0 0.0 4 8 0 0x0 0 0
r 0.65332 2 3 tcp 1000 ------- 0 0.0 3.0 5 7 0 0x0 0 0
r 0.74372 3 2 ack 40 ------- 0 3.0 0.0 4 8 0 0x0 0 0
+ 0.74372 2 0 ack 40 ------- 0 3.0 0.0 4 8 0 0x0 0 0
- 0.74372 2 0 ack 40 ------- 0 3.0 0.0 4 8 0 0x0 0 0
r 0.74376 2 0 ack 40 ------- 0 3.0 0.0 4 8 0 0x0 0 0
+ 0.74376 0 2 tcp 1000 ------- 0 0.0 3.0 6 9 0 0x0 0 0
- 0.74376 0 2 tcp 1000 ------- 0 0.0 3.0 6 9 0 0x0 0 0
+ 0.74376 0 2 tcp 1000 ------- 0 0.0 3.0 7 10 0 0x0 0 0
+ 0.74376 0 2 tcp 1000 ------- 0 0.0 3.0 8 11 0 0x0 0 0
r 0.74476 0 2 tcp 1000 ------- 0 0.0 3.0 6 9 0 0x0 0 0
+ 0.74476 2 3 tcp 1000 ------- 0 0.0 3.0 6 9 0 0x0 0 0
- 0.74476 2 3 tcp 1000 ------- 0 0.0 3.0 6 9 0 0x0 0 0
- 0.74476 0 2 tcp 1000 ------- 0 0.0 3.0 7 10 0 0x0 0 0
r 0.74576 0 2 tcp 1000 ------- 0 0.0 3.0 7 10 0 0x0 0 0
+ 0.74576 2 3 tcp 1000 ------- 0 0.0 3.0 7 10 0 0x0 0 0
- 0.74576 0 2 tcp 1000 ------- 0 0.0 3.0 8 11 0 0x0 0 0
r 0.74676 0 2 tcp 1000 ------- 0 0.0 3.0 8 11 0 0x0 0 0
+ 0.74676 2 3 tcp 1000 ------- 0 0.0 3.0 8 11 0 0x0 0 0
+ 0.75332 3 2 ack 40 ------- 0 3.0 0.0 5 12 0 0x0 0 0
- 0.75332 3 2 ack 40 ------- 0 3.0 0.0 5 12 0 0x0 0 0
- 0.75476 2 3 tcp 1000 ------- 0 0.0 3.0 7 10 0 0x0 0 0
- 0.76476 2 3 tcp 1000 ------- 0 0.0 3.0 8 11 0 0x0 0 0
r 0.85372 3 2 ack 40 ------- 0 3.0 0.0 5 12 0 0x0 0 0
+ 0.85372 2 0 ack 40 ------- 0 3.0 0.0 5 12 0 0x0 0 0
- 0.85372 2 0 ack 40 ------- 0 3.0 0.0 5 12 0 0x0 0 0
r 0.85376 2 0 ack 40 ------- 0 3.0 0.0 5 12 0 0x0 0 0
+ 0.85376 0 2 tcp 1000 ------- 0 0.0 3.0 9 13 0 0x0 0 0
- 0.85376 0 2 tcp 1000 ------- 0 0.0 3.0 9 13 0 0x0 0 0
+ 0.85376 0 2 tcp 1000 ------- 0 0.0 3.0 10 14 0 0x0 0 0
r 0.85476 2 3 tcp 1000 ------- 0 0.0 3.0 6 9 0 0x0 0 0
r 0.85476 0 2 tcp 1000 ------- 0 0.0 3.0 9 13 0 0x0 0 0
+ 0.85476 2 3 tcp 1000 ------- 0 0.0 3.0 9 13 0 0x0 0 0
- 0.85476 2 3 tcp 1000 ------- 0 0.0 3.0 9 13 0 0x0 0 0
- 0.85476 0 2 tcp 1000 ------- 0 0.0 3.0 10 14 0 0x0 0 0
r 0.85576 0 2 tcp 1000 ------- 0 0.0 3.0 10 14 0 0x0 0 0
+ 0.85576 2 3 tcp 1000 ------- 0 0.0 3.0 10 14 0 0x0 0 0
- 0.86476 2 3 tcp 1000 ------- 0 0.0 3.0 10 14 0 0x0 0 0
r 0.87476 2 3 tcp 1000 ------- 0 0.0 3.0 8 11 0 0x0 0 0
+ 0.87476 3 2 ack 48 ------- 0 3.0 0.0 6 15 0 0x0 0 1
- 0.87476 3 2 ack 48 ------- 0 3.0 0.0 6 15 0 0x0 0 1
r 0.96476 2 3 tcp 1000 ------- 0 0.0 3.0 9 13 0 0x0 0 0
+ 0.96476 3 2 ack 48 ------- 0 3.0 0.0 6 16 0 0x0 0 1
- 0.96476 3 2 ack 48 ------- 0 3.0 0.0 6 16 0 0x0 0 1
r 0.97476 2 3 tcp 1000 ------- 0 0.0 3.0 7 10 0 0x0 0 0
+ 0.97476 3 2 ack 40 ------- 0 3.0 0.0 9 17 0 0x0 0 0
- 0.97476 3 2 ack 40 ------- 0 3.0 0.0 9 17 0 0x0 0 0
r 0.97476 2 3 tcp 1000 ------- 0 0.0 3.0 10 14 0 0x0 0 0
r 0.97524 3 2 ack 48 ------- 0 3.0 0.0 6 15 0 0x0 0 1
+ 0.97524 2 0 ack 48 ------- 0 3.0 0.0 6 15 0 0x0 0 1
- 0.97524 2 0 ack 48 ------- 0 3.0 0.0 6 15 0 0x0 0 1
r 0.975288 2 0 ack 48 ------- 0 3.0 0.0 6 15 0 0x0 0 1
+ 0.975288 0 2 tcp 1000 ------- 0 0.0 3.0 11 18 0 0x0 0 0
- 0.975288 0 2 tcp 1000 ------- 0 0.0 3.0 11 18 0 0x0 0 0
+ 0.975288 0 2 tcp 1000 ------- 0 0.0 3.0 12 19 0 0x0 0 0
r 0.976288 0 2 tcp 1000 ------- 0 0.0 3.0 11 18 0 0x0 0 0
+ 0.976288 2 3 tcp 1000 ------- 0 0.0 3.0 11 18 0 0x0 0 0
- 0.976288 2 3 tcp 1000 ------- 0 0.0 3.0 11 18 0 0x0 0 0
- 0.976288 0 2 tcp 1000 ------- 0 0.0 3.0 12 19 0 0x0 0 0
r 0.977288 0 2 tcp 1000 ------- 0 0.0 3.0 12 19 0 0x0 0 0
+ 0.977288 2 3 tcp 1000 ------- 0 0.0 3.0 12 19 0 0x0 0 0
- 0.986288 2 3 tcp 1000 ------- 0 0.0 3.0 12 19 0 0x0 0 0
r 1.06524 3 2 ack 48 ------- 0 3.0 0.0 6 16 0 0x0 0 1
+ 1.06524 2 0 ack 48 ------- 0 3.0 0.0 6 16 0 0x0 0 1
- 1.06524 2 0 ack 48 ------- 0 3.0 0.0 6 16 0 0x0 0 1
r 1.065288 2 0 ack 48 ------- 0 3.0 0.0 6 16 0 0x0 0 1
+ 1.07476 3 2 ack 40 ------- 0 3.0 0.0 10 20 0 0x0 0 0
- 1.07476 3 2 ack 40 ------- 0 3.0 0.0 10 20 0 0x0 0 0
r 1.07516 3 2 ack 40 ------- 0 3.0 0.0 9 17 0 0x0 0 0
+ 1.07516 2 0 ack 40 ------- 0 3.0 0.0 9 17 0 0x0 0 0
- 1.07516 2 0 ack 40 ------- 0 3.0 0.0 9 17 0 0x0 0 0
r 1.0752 2 0 ack 40 ------- 0 3.0 0.0 9 17 0 0x0 0 0
+ 1.0752 0 2 tcp 1000 ------- 0 0.0 3.0 13 21 0 0x0 0 0
- 1.0752 0 2 tcp 1000 ------- 0 0.0 3.0 13 21 0 0x0 0 0
+ 1.0752 0 2 tcp 1000 ------- 0 0.0 3.0 14 22 0 0x0 0 0
+ 1.0752 0 2 tcp 1000 ------- 0 0.0 3.0 15 23 0 0x0 0 0
+ 1.0752 0 2 tcp 1000 ------- 0 0.0 3.0 16 24 0 0x0 0 0
r 1.0762 0 2 tcp 1000 ------- 0 0.0 3.0 13 21 0 0x0 0 0
+ 1.0762 2 3 tcp 1000 ------- 0 0.0 3.0 13 21 0 0x0 0 0
- 1.0762 2 3 tcp 1000 ------- 0 0.0 3.0 13 21 0 0x0 0 0
- 1.0762 0 2 tcp 1000 ------- 0 0.0 3.0 14 22 0 0x0 0 0
r 1.0772 0 2 tcp 1000 ------- 0 0.0 3.0 14 22 0 0x0 0 0
+ 1.0772 2 3 tcp 1000 ------- 0 0.0 3.0 14 22 0 0x0 0 0
- 1.0772 0 2 tcp 1000 ------- 0 0.0 3.0 15 23 0 0x0 0 0
r 1.0782 0 2 tcp 1000 ------- 0 0.0 3.0 15 23 0 0x0 0 0
+ 1.0782 2 3 tcp 1000 ------- 0 0.0 3.0 15 23 0 0x0 0 0
- 1.0782 0 2 tcp 1000 ------- 0 0.0 3.0 16 24 0 0x0 0 0
r 1.0792 0 2 tcp 1000 ------- 0 0.0 3.0 16 24 0 0x0 0 0
+ 1.0792 2 3 tcp 1000 ------- 0 0.0 3.0 16 24 0 0x0 0 0
- 1.0862 2 3 tcp 1000 ------- 0 0.0 3.0 14 22 0 0x0 0 0
r 1.086288 2 3 tcp 1000 ------- 0 0.0 3.0 11 18 0 0x0 0 0
- 1.0962 2 3 tcp 1000 ------- 0 0.0 3.0 15 23 0 0x0 0 0
r 1.096288 2 3 tcp 1000 ------- 0 0.0 3.0 12 19 0 0x0 0 0
+ 1.096288 3 2 ack 40 ------- 0 3.0 0.0 12 25 0 0x0 0 0
- 1.096288 3 2 ack 40 ------- 0 3.0 0.0 12 25 0 0x0 0 0
- 1.1062 2 3 tcp 1000 ------- 0 0.0 3.0 16 24 0 0x0 0 0
r 1.17516 3 2 ack 40 ------- 0 3.0 0.0 10 20 0 0x0 0 0
+ 1.17516 2 0 ack 40 ------- 0 3.0 0.0 10 20 0 0x0 0 0
- 1.17516 2 0 ack 40 ------- 0 3.0 0.0 10 20 0 0x0 0 0
r 1.1752 2 0 ack 40 ------- 0 3.0 0.0 10 20 0 0x0 0 0
+ 1.1752 0 2 tcp 1000 ------- 0 0.0 3.0 17 26 0 0x0 0 0
- 1.1752 0 2 tcp 1000 ------- 0 0.0 3.0 17 26 0 0x0 0 0
+ 1.1752 0 2 tcp 1000 ------- 0 0.0 3.0 18 27 0 0x0 0 0
r 1.1762 0 2 tcp 1000 ------- 0 0.0 3.0 17 26 0 0x0 0 0
+ 1.1762 2 3 tcp 1000 ------- 0 0.0 3.0 17 26 0 0x0 0 0
- 1.1762 2 3 tcp 1000 ------- 0 0.0 3.0 17 26 0 0x0 0 0
- 1.1762 0 2 tcp 1000 ------- 0 0.0 3.0 18 27 0 0x0 0 0
r 1.1772 0 2 tcp 1000 ------- 0 0.0 3.0 18 27 0 0x0 0 0
+ 1.1772 2 3 tcp 1000 ------- 0 0.0 3.0 18 27 0 0x0 0 0
r 1.1862 2 3 tcp 1000 ------- 0 0.0 3.0 13 21 0 0x0 0 0
- 1.1862 2 3 tcp 1000 ------- 0 0.0 3.0 18 27 0 0x0 0 0
r 1.1962 2 3 tcp 1000 ------- 0 0.0 3.0 14 22 0 0x0 0 0
+ 1.1962 3 2 ack 40 ------- 0 3.0 0.0 14 28 0 0x0 0 0
- 1.1962 3 2 ack 40 ------- 0 3.0 0.0 14 28 0 0x0 0 0
r 1.196688 3 2 ack 40 ------- 0 3.0 0.0 12 25 0 0x0 0 0
+ 1.196688 2 0 ack 40 ------- 0 3.0 0.0 12 25 0 0x0 0 0
- 1.196688 2 0 ack 40 ------- 0 3.0 0.0 12 25 0 0x0 0 0
r 1.196728 2 0 ack 40 ------- 0 3.0 0.0 12 25 0 0x0 0 0
+ 1.196728 0 2 tcp 1000 ------- 0 0.0 3.0 19 29 0 0x0 0 0
- 1.196728 0 2 tcp 1000 ------- 0 0.0 3.0 19 29 0 0x0 0 0
+ 1.196728 0 2 tcp 1000 ------- 0 0.0 3.0 20 30 0 0x0 0 0
+ 1.196728 0 2 tcp 1000 ------- 0 0.0 3.0 21 31 0 0x0 0 0
r 1.197728 0 2 tcp 1000 ------- 0 0.0 3.0 19 29 0 0x0 0 0
+ 1.197728 2 3 tcp 1000 ------- 0 0.0 3.0 19 29 0 0x0 0 0
- 1.197728 2 3 tcp 1000 ------- 0 0.0 3.0 19 29 0 0x0 0 0
- 1.197728 0 2 tcp 1000 ------- 0 0.0 3.0 20 30 0 0x0 0 0
r 1.198728 0 2 tcp 1000 ------- 0 0.0 3.0 20 30 0 0x0 0 0
+ 1.198728 2 3 tcp 1000 ------- 0 0.0 3.0 20 30 0 0x0 0 0
- 1.198728 0 2 tcp 1000 ------- 0 0.0 3.0 21 31 0 0x0 0 0
r 1.199728 0 2 tcp 1000 ------- 0 0.0 3.0 21 31 0 0x0 0 0
+ 1.199728 2 3 tcp 1000 ------- 0 0.0 3.0 21 31 0 0x0 0 0
r 1.2062 2 3 tcp 1000 ------- 0 0.0 3.0 15 23 0 0x0 0 0
- 1.207728 2 3 tcp 1000 ------- 0 0.0 3.0 20 30 0 0x0 0 0
r 1.2162 2 3 tcp 1000 ------- 0 0.0 3.0 16 24 0 0x0 0 0
+ 1.2162 3 2 ack 40 ------- 0 3.0 0.0 16 32 0 0x0 0 0
- 1.2162 3 2 ack 40 ------- 0 3.0 0.0 16 32 0 0x0 0 0
- 1.217728 2 3 tcp 1000 ------- 0 0.0 3.0 21 31 0 0x0 0 0
r 1.2862 2 3 tcp 1000 ------- 0 0.0 3.0 17 26 0 0x0 0 0
r 1.2962 2 3 tcp 1000 ------- 0 0.0 3.0 18 27 0 0x0 0 0
+ 1.2962 3 2 ack 40 ------- 0 3.0 0.0 18 33 0 0x0 0 0
- 1.2962 3 2 ack 40 ------- 0 3.0 0.0 18 33 0 0x0 0 0
r 1.2966 3 2 ack 40 ------- 0 3.0 0.0 14 28 0 0x0 0 0
+ 1.2966 2 0 ack 40 ------- 0 3.0 0.0 14 28 0 0x0 0 0
- 1.2966 2 0 ack 40 ------- 0 3.0 0.0 14 28 0 0x0 0 0
r 1.29664 2 0 ack 40 ------- 0 3.0 0.0 14 28 0 0x0 0 0
+ 1.29664 0 2 tcp 1000 ------- 0 0.0 3.0 22 34 0 0x0 0 0
- 1.29664 0 2 tcp 1000 ------- 0 0.0 3.0 22 34 0 0x0 0 0
+ 1.29664 0 2 tcp 1000 ------- 0 0.0 3.0 23 35 0 0x0 0 0
+ 1.29664 0 2 tcp 1000 ------- 0 0.0 3.0 24 36 0 0x0 0 0
r 1.29764 0 2 tcp 1000 ------- 0 0.0 3.0 22 34 0 0x0 0 0
+ 1.29764 2 3 tcp 1000 ------- 0 0.0 3.0 22 34 0 0x0 0 0
- 1.29764 2 3 tcp 1000 ------- 0 0.0 3.0 22 34 0 0x0 0 0
- 1.29764 0 2 tcp 1000 ------- 0 0.0 3.0 23 35 0 0x0 0 0
r 1.29864 0 2 tcp 1000 ------- 0 0.0 3.0 23 35 0 0x0 0 0
+ 1.29864 2 3 tcp 1000 ------- 0 0.0 3.0 23 35 0 0x0 0 0
- 1.29864 0 2 tcp 1000 ------- 0 0.0 3.0 24 36 0 0x0 0 0
r 1.29964 0 2 tcp 1000 ------- 0 0.0 3.0 24 36 0 0x0 0 0
+ 1.29964 2 3 tcp 1000 ------- 0 0.0 3.0 24 36 0 0x0 0 0
- 1.30764 2 3 tcp 1000 ------- 0 0.0 3.0 23 35 0 0x0 0 0
r 1.307728 2 3 tcp 1000 ------- 0 0.0 3.0 19 29 0 0x0 0 0
r 1.3166 3 2 ack 40 ------- 0 3.0 0.0 16 32 0 0x0 0 0
+ 1.3166 2 0 ack 40 ------- 0 3.0 0.0 16 32 0 0x0 0 0
- 1.3166 2 0 ack 40 ------- 0 3.0 0.0 16 32 0 0x0 0 0
r 1.31664 2 0 ack 40 ------- 0 3.0 0.0 16 32 0 0x0 0 0
+ 1.31664 0 2 tcp 1000 ------- 0 0.0 3.0 25 37 0 0x0 0 0
- 1.31664 0 2 tcp 1000 ------- 0 0.0 3.0 25 37 0 0x0 0 0
+ 1.31664 0 2 tcp 1000 ------- 0 0.0 3.0 26 38 0 0x0 0 0
+ 1.31664 0 2 tcp 1000 ------- 0 0.0 3.0 27 39 0 0x0 0 0
- 1.31764 2 3 tcp 1000 ------- 0 0.0 3.0 24 36 0 0x0 0 0
r 1.31764 0 2 tcp 1000 ------- 0 0.0 3.0 25 37 0 0x0 0 0
+ 1.31764 2 3 tcp 1000 ------- 0 0.0 3.0 25 37 0 0x0 0 0
- 1.31764 0 2 tcp 1000 ------- 0 0.0 3.0 26 38 0 0x0 0 0
r 1.317728 2 3 tcp 1000 ------- 0 0.0 3.0 20 30 0 0x0 0 0
+ 1.317728 3 2 ack 40 ------- 0 3.0 0.0 20 40 0 0x0 0 0
- 1.317728 3 2 ack 40 ------- 0 3.0 0.0 20 40 0 0x0 0 0
r 1.31864 0 2 tcp 1000 ------- 0 0.0 3.0 26 38 0 0x0 0 0
+ 1.31864 2 3 tcp 1000 ------- 0 0.0 3.0 26 38 0 0x0 0 0
- 1.31864 0 2 tcp 1000 ------- 0 0.0 3.0 27 39 0 0x0 0 0
r 1.31964 0 2 tcp 1000 ------- 0 0.0 3.0 27 39 0 0x0 0 0
+ 1.31964 2 3 tcp 1000 ------- 0 0.0 3.0 27 39 0 0x0 0 0
- 1.32764 2 3 tcp 1000 ------- 0 0.0 3.0 25 37 0 0x0 0 0
r 1.327728 2 3 tcp 1000 ------- 0 0.0 3.0 21 31 0 0x0 0 0
- 1.33764 2 3 tcp 1000 ------- 0 0.0 3.0 26 38 0 0x0 0 0
- 1.34764 2 3 tcp 1000 ------- 0 0.0 3.0 27 39 0 0x0 0 0
r 1.3966 3 2 ack 40 ------- 0 3.0 0.0 18 33 0 0x0 0 0
+ 1.3966 2 0 ack 40 ------- 0 3.0 0.0 18 33 0 0x0 0 0
- 1.3966 2 0 ack 40 ------- 0 3.0 0.0 18 33 0 0x0 0 0
r 1.39664 2 0 ack 40 ------- 0 3.0 0.0 18 33 0 0x0 0 0
+ 1.39664 0 2 tcp 1000 ------- 0 0.0 3.0 28 41 0 0x0 0 0
- 1.39664 0 2 tcp 1000 ------- 0 0.0 3.0 28 41 0 0x0 0 0
+ 1.39664 0 2 tcp 1000 ------- 0 0.0 3.0 29 42 0 0x0 0 0
+ 1.39664 0 2 tcp 1000 ------- 0 0.0 3.0 30 43 0 0x0 0 0
r 1.39764 0 2 tcp 1000 ------- 0 0.0 3.0 28 41 0 0x0 0 0
+ 1.39764 2 3 tcp 1000 ------- 0 0.0 3.0 28 41 0 0x0 0 0
- 1.39764 2 3 tcp 1000 ------- 0 0.0 3.0 28 41 0 0x0 0 0
- 1.39764 0 2 tcp 1000 ------- 0 0.0 3.0 29 42 0 0x0 0 0
r 1.39864 0 2 tcp 1000 ------- 0 0.0 3.0 29 42 0 0x0 0 0
+ 1.39864 2 3 tcp 1000 ------- 0 0.0 3.0 29 42 0 0x0 0 0
- 1.39864 0 2 tcp 1000 ------- 0 0.0 3.0 30 43 0 0x0 0 0
r 1.39964 0 2 tcp 1000 ------- 0 0.0 3.0 30 43 0 0x0 0 0
+ 1.39964 2 3 tcp 1000 ------- 0 0.0 3.0 30 43 0 0x0 0 0
r 1.40764 2 3 tcp 1000 ------- 0 0.0 3.0 22 34 0 0x0 0 0
+ 1.40764 3 2 ack 40 ------- 0 3.0 0.0 22 44 0 0x0 0 0
- 1.40764 3 2 ack 40 ------- 0 3.0 0.0 22 44 0 0x0 0 0
- 1.40764 2 3 tcp 1000 ------- 0 0.0 3.0 29 42 0 0x0 0 0
r 1.41764 2 3 tcp 1000 ------- 0 0.0 3.0 23 35 0 0x0 0 0
- 1.41764 2 3 tcp 1000 ------- 0 0.0 3.0 30 43 0 0x0 0 0
r 1.418128 3 2 ack 40 ------- 0 3.0 0.0 20 40 0 0x0 0 0
+ 1.418128 2 0 ack 40 ------- 0 3.0 0.0 20 40 0 0x0 0 0
- 1.418128 2 0 ack 40 ------- 0 3.0 0.0 20 40 0 0x0 0 0
r 1.418168 2 0 ack 40 ------- 0 3.0 0.0 20 40 0 0x0 0 0
+ 1.418168 0 2 tcp 1000 ------- 0 0.0 3.0 31 45 0 0x0 0 0
- 1.418168 0 2 tcp 1000 ------- 0 0.0 3.0 31 45 0 0x0 0 0
+ 1.418168 0 2 tcp 1000 ------- 0 0.0 3.0 32 46 0 0x0 0 0
+ 1.418168 0 2 tcp 1000 ------- 0 0.0 3.0 33 47 0 0x0 0 0
r 1.419168 0 2 tcp 1000 ------- 0 0.0 3.0 31 45 0 0x0 0 0
+ 1.419168 2 3 tcp 1000 ------- 0 0.0 3.0 31 45 0 0x0 0 0
- 1.419168 0 2 tcp 1000 ------- 0 0.0 3.0 32 46 0 0x0 0 0
r 1.420168 0 2 tcp 1000 ------- 0 0.0 3.0 32 46 0 0x0 0 0
+ 1.420168 2 3 tcp 1000 ------- 0 0.0 3.0 32 46 0 0x0 0 0
- 1.420168 0 2 tcp 1000 ------- 0 0.0 3.0 33 47 0 0x0 0 0
r 1.421168 0 2 tcp 1000 ------- 0 0.0 3.0 33 47 0 0x0 0 0
+ 1.421168 2 3 tcp 1000 ------- 0 0.0 3.0 33 47 0 0x0 0 0
r 1.42764 2 3 tcp 1000 ------- 0 0.0 3.0 24 36 0 0x0 0 0
+ 1.42764 3 2 ack 40 ------- 0 3.0 0.0 24 48 0 0x0 0 0
- 1.42764 3 2 ack 40 ------- 0 3.0 0.0 24 48 0 0x0 0 0
- 1.42764 2 3 tcp 1000 ------- 0 0.0 3.0 31 45 0 0x0 0 0
r 1.43764 2 3 tcp 1000 ------- 0 0.0 3.0 25 37 0 0x0 0 0
- 1.43764 2 3 tcp 1000 ------- 0 0.0 3.0 32 46 0 0x0 0 0
r 1.44764 2 3 tcp 1000 ------- 0 0.0 3.0 26 38 0 0x0 0 0
+ 1.44764 3 2 ack 40 ------- 0 3.0 0.0 26 49 0 0x0 0 0
- 1.44764 3 2 ack 40 ------- 0 3.0 0.0 26 49 0 0x0 0 0
- 1.44764 2 3 tcp 1000 ------- 0 0.0 3.0 33 47 0 0x0 0 0
r 1.45764 2 3 tcp 1000 ------- 0 0.0 3.0 27 39 0 0x0 0 0
r 1.50764 2 3 tcp 1000 ------- 0 0.0 3.0 28 41 0 0x0 0 0
+ 1.50764 3 2 ack 40 ------- 0 3.0 0.0 28 50 0 0x0 0 0
- 1.50764 3 2 ack 40 ------- 0 3.0 0.0 28 50 0 0x0 0 0
r 1.50804 3 2 ack 40 ------- 0 3.0 0.0 22 44 0 0x0 0 0
+ 1.50804 2 0 ack 40 ------- 0 3.0 0.0 22 44 0 0x0 0 0
- 1.50804 2 0 ack 40 ------- 0 3.0 0.0 22 44 0 0x0 0 0
r 1.50808 2 0 ack 40 ------- 0 3.0 0.0 22 44 0 0x0 0 0
+ 1.50808 0 2 tcp 1000 ------- 0 0.0 3.0 34 51 0 0x0 0 0
- 1.50808 0 2 tcp 1000 ------- 0 0.0 3.0 34 51 0 0x0 0 0
+ 1.50808 0 2 tcp 1000 ------- 0 0.0 3.0 35 52 0 0x0 0 0
+ 1.50808 0 2 tcp 1000 ------- 0 0.0 3.0 36 53 0 0x0 0 0
r 1.50908 0 2 tcp 1000 ------- 0 0.0 3.0 34 51 0 0x0 0 0
+ 1.50908 2 3 tcp 1000 ------- 0 0.0 3.0 34 51 0 0x0 0 0
- 1.50908 2 3 tcp 1000 ------- 0 0.0 3.0 34 51 0 0x0 0 0
- 1.50908 0 2 tcp 1000 ------- 0 0.0 3.0 35 52 0 0x0 0 0
r 1.51008 0 2 tcp 1000 ------- 0 0.0 3.0 35 52 0 0x0 0 0
+ 1.51008 2 3 tcp 1000 ------- 0 0.0 3.0 35 52 0 0x0 0 0
- 1.51008 0 2 tcp 1000 ------- 0 0.0 3.0 36 53 0 0x0 0 0
r 1.51108 0 2 tcp 1000 ------- 0 0.0 3.0 36 53 0 0x0 0 0
+ 1.51108 2 3 tcp 1000 ------- 0 0.0 3.0 36 53 0 0x0 0 0
r 1.51764 2 3 tcp 1000 ------- 0 0.0 3.0 29 42 0 0x0 0 0
- 1.51908 2 3 tcp 1000 ------- 0 0.0 3.0 35 52 0 0x0 0 0
r 1.52764 2 3 tcp 1000 ------- 0 0.0 3.0 30 43 0 0x0 0 0
+ 1.52764 3 2 ack 40 ------- 0 3.0 0.0 30 54 0 0x0 0 0
- 1.52764 3 2 ack 40 ------- 0 3.0 0.0 30 54 0 0x0 0 0
r 1.52804 3 2 ack 40 ------- 0 3.0 0.0 24 48 0 0x0 0 0
+ 1.52804 2 0 ack 40 ------- 0 3.0 0.0 24 48 0 0x0 0 0
- 1.52804 2 0 ack 40 ------- 0 3.0 0.0 24 48 0 0x0 0 0
r 1.52808 2 0 ack 40 ------- 0 3.0 0.0 24 48 0 0x0 0 0
+ 1.52808 0 2 tcp 1000 ------- 0 0.0 3.0 37 55 0 0x0 0 0
- 1.52808 0 2 tcp 1000 ------- 0 0.0 3.0 37 55 0 0x0 0 0
+ 1.52808 0 2 tcp 1000 ------- 0 0.0 3.0 38 56 0 0x0 0 0
+ 1.52808 0 2 tcp 1000 ------- 0 0.0 3.0 39 57 0 0x0 0 0
- 1.52908 2 3 tcp 1000 ------- 0 0.0 3.0 36 53 0 0x0 0 0
r 1.52908 0 2 tcp 1000 ------- 0 0.0 3.0 37 55 0 0x0 0 0
+ 1.52908 2 3 tcp 1000 ------- 0 0.0 3.0 37 55 0 0x0 0 0
- 1.52908 0 2 tcp 1000 ------- 0 0.0 3.0 38 56 0 0x0 0 0
r 1.53008 0 2 tcp 1000 ------- 0 0.0 3.0 38 56 0 0x0 0 0
+ 1.53008 2 3 tcp 1000 ------- 0 0.0 3.0 38 56 0 0x0 0 0
- 1.53008 0 2 tcp 1000 ------- 0 0.0 3.0 39 57 0 0x0 0 0
r 1.53108 0 2 tcp 1000 ------- 0 0.0 3.0 39 57 0 0x0 0 0
+ 1.53108 2 3 tcp 1000 ------- 0 0.0 3.0 39 57 0 0x0 0 0
r 1.53764 2 3 tcp 1000 ------- 0 0.0 3.0 31 45 0 0x0 0 0
- 1.53908 2 3 tcp 1000 ------- 0 0.0 3.0 37 55 0 0x0 0 0
r 1.54764 2 3 tcp 1000 ------- 0 0.0 3.0 32 46 0 0x0 0 0
+ 1.54764 3 2 ack 40 ------- 0 3.0 0.0 32 58 0 0x0 0 0
- 1.54764 3 2 ack 40 ------- 0 3.0 0.0 32 58 0 0x0 0 0
r 1.54804 3 2 ack 40 ------- 0 3.0 0.0 26 49 0 0x0 0 0
+ 1.54804 2 0 ack 40 ------- 0 3.0 0.0 26 49 0 0x0 0 0
- 1.54804 2 0 ack 40 ------- 0 3.0 0.0 26 49 0 0x0 0 0
r 1.54808 2 0 ack 40 ------- 0 3.0 0.0 26 49 0 0x0 0 0
+ 1.54808 0 2 tcp 1000 ------- 0 0.0 3.0 40 59 0 0x0 0 0
- 1.54808 0 2 tcp 1000 ------- 0 0.0 3.0 40 59 0 0x0 0 0
+ 1.54808 0 2 tcp 1000 ------- 0 0.0 3.0 41 60 0 0x0 0 0
+ 1.54808 0 2 tcp 1000 ------- 0 0.0 3.0 42 61 0 0x0 0 0
- 1.54908 2 3 tcp 1000 ------- 0 0.0 3.0 38 56 0 0x0 0 0
r 1.54908 0 2 tcp 1000 ------- 0 0.0 3.0 40 59 0 0x0 0 0
+ 1.54908 2 3 tcp 1000 ------- 0 0.0 3.0 40 59 0 0x0 0 0
- 1.54908 0 2 tcp 1000 ------- 0 0.0 3.0 41 60 0 0x0 0 0
r 1.55008 0 2 tcp 1000 ------- 0 0.0 3.0 41 60 0 0x0 0 0
+ 1.55008 2 3 tcp 1000 ------- 0 0.0 3.0 41 60 0 0x0 0 0
- 1.55008 0 2 tcp 1000 ------- 0 0.0 3.0 42 61 0 0x0 0 0
r 1.55108 0 2 tcp 1000 ------- 0 0.0 3.0 42 61 0 0x0 0 0
+ 1.55108 2 3 tcp 1000 ------- 0 0.0 3.0 42 61 0 0x0 0 0
r 1.55764 2 3 tcp 1000 ------- 0 0.0 3.0 33 47 0 0x0 0 0
- 1.55908 2 3 tcp 1000 ------- 0 0.0 3.0 39 57 0 0x0 0 0
- 1.56908 2 3 tcp 1000 ------- 0 0.0 3.0 40 59 0 0x0 0 0
- 1.57908 2 3 tcp 1000 ------- 0 0.0 3.0 41 60 0 0x0 0 0
- 1.58908 2 3 tcp 1000 ------- 0 0.0 3.0 42 61 0 0x0 0 0
r 1.60804 3 2 ack 40 ------- 0 3.0 0.0 28 50 0 0x0 0 0
+ 1.60804 2 0 ack 40 ------- 0 3.0 0.0 28 50 0 0x0 0 0
- 1.60804 2 0 ack 40 ------- 0 3.0 0.0 28 50 0 0x0 0 0
r 1.60808 2 0 ack 40 ------- 0 3.0 0.0 28 50 0 0x0 0 0
+ 1.60808 0 2 tcp 1000 ------- 0 0.0 3.0 43 62 0 0x0 0 0
- 1.60808 0 2 tcp 1000 ------- 0 0.0 3.0 43 62 0 0x0 0 0
+ 1.60808 0 2 tcp 1000 ------- 0 0.0 3.0 44 63 0 0x0 0 0
+ 1.60808 0 2 tcp 1000 ------- 0 0.0 3.0 45 64 0 0x0 0 0
r 1.60908 0 2 tcp 1000 ------- 0 0.0 3.0 43 62 0 0x0 0 0
+ 1.60908 2 3 tcp 1000 ------- 0 0.0 3.0 43 62 0 0x0 0 0
- 1.60908 2 3 tcp 1000 ------- 0 0.0 3.0 43 62 0 0x0 0 0
- 1.60908 0 2 tcp 1000 ------- 0 0.0 3.0 44 63 0 0x0 0 0
r 1.61008 0 2 tcp 1000 ------- 0 0.0 3.0 44 63 0 0x0 0 0
+ 1.61008 2 3 tcp 1000 ------- 0 0.0 3.0 44 63 0 0x0 0 0
- 1.61008 0 2 tcp 1000 ------- 0 0.0 3.0 45 64 0 0x0 0 0
r 1.61108 0 2 tcp 1000 ------- 0 0.0 3.0 45 64 0 0x0 0 0
+ 1.61108 2 3 tcp 1000 ------- 0 0.0 3.0 45 64 0 0x0 0 0
r 1.61908 2 3 tcp 1000 ------- 0 0.0 3.0 34 51 0 0x0 0 0
+ 1.61908 3 2 ack 40 ------- 0 3.0 0.0 34 65 0 0x0 0 0
- 1.61908 3 2 ack 40 ------- 0 3.0 0.0 34 65 0 0x0 0 0
- 1.61908 2 3 tcp 1000 ------- 0 0.0 3.0 44 63 0 0x0 0 0
r 1.62804 3 2 ack 40 ------- 0 3.0 0.0 30 54 0 0x0 0 0
+ 1.62804 2 0 ack 40 ------- 0 3.0 0.0 30 54 0 0x0 0 0
- 1.62804 2 0 ack 40 ------- 0 3.0 0.0 30 54 0 0x0 0 0
r 1.62808 2 0 ack 40 ------- 0 3.0 0.0 30 54 0 0x0 0 0
+ 1.62808 0 2 tcp 1000 ------- 0 0.0 3.0 46 66 0 0x0 0 0
- 1.62808 0 2 tcp 1000 ------- 0 0.0 3.0 46 66 0 0x0 0 0
+ 1.62808 0 2 tcp 1000 ------- 0 0.0 3.0 47 67 0 0x0 0 0
+ 1.62808 0 2 tcp 1000 ------- 0 0.0 3.0 48 68 0 0x0 0 0
r 1.62908 2 3 tcp 1000 ------- 0 0.0 3.0 35 52 0 0x0 0 0
- 1.62908 2 3 tcp 1000 ------- 0 0.0 3.0 45 64 0 0x0 0 0
r 1.62908 0 2 tcp 1000 ------- 0 0.0 3.0 46 66 0 0x0 0 0
+ 1.62908 2 3 tcp 1000 ------- 0 0.0 3.0 46 66 0 0x0 0 0
- 1.62908 0 2 tcp 1000 ------- 0 0.0 3.0 47 67 0 0x0 0 0
r 1.63008 0 2 tcp 1000 ------- 0 0.0 3.0 47 67 0 0x0 0 0
+ 1.63008 2 3 tcp 1000 ------- 0 0.0 3.0 47 67 0 0x0 0 0
- 1.63008 0 2 tcp 1000 ------- 0 0.0 3.0 48 68 0 0x0 0 0
r 1.63108 0 2 tcp 1000 ------- 0 0.0 3.0 48 68 0 0x0 0 0
+ 1.63108 2 3 tcp 1000 ------- 0 0.0 3.0 48 68 0 0x0 0 0
r 1.63908 2 3 tcp 1000 ------- 0 0.0 3.0 36 53 0 0x0 0 0
+ 1.63908 3 2 ack 40 ------- 0 3.0 0.0 36 69 0 0x0 0 0
- 1.63908 3 2 ack 40 ------- 0 3.0 0.0 36 69 0 0x0 0 0
- 1.63908 2 3 tcp 1000 ------- 0 0.0 3.0 46 66 0 0x0 0 0
r 1.64804 3 2 ack 40 ------- 0 3.0 0.0 32 58 0 0x0 0 0
+ 1.64804 2 0 ack 40 ------- 0 3.0 0.0 32 58 0 0x0 0 0
- 1.64804 2 0 ack 40 ------- 0 3.0 0.0 32 58 0 0x0 0 0
r 1.64808 2 0 ack 40 ------- 0 3.0 0.0 32 58 0 0x0 0 0
+ 1.64808 0 2 tcp 1000 ------- 0 0.0 3.0 49 70 0 0x0 0 0
- 1.64808 0 2 tcp 1000 ------- 0 0.0 3.0 49 70 0 0x0 0 0
+ 1.64808 0 2 tcp 1000 ------- 0 0.0 3.0 50 71 0 0x0 0 0
+ 1.64808 0 2 tcp 1000 ------- 0 0.0 3.0 51 72 0 0x0 0 0
r 1.64908 2 3 tcp 1000 ------- 0 0.0 3.0 37 55 0 0x0 0 0
- 1.64908 2 3 tcp 1000 ------- 0 0.0 3.0 47 67 0 0x0 0 0
r 1.64908 0 2 tcp 1000 ------- 0 0.0 3.0 49 70 0 0x0 0 0
+ 1.64908 2 3 tcp 1000 ------- 0 0.0 3.0 49 70 0 0x0 0 0
- 1.64908 0 2 tcp 1000 ------- 0 0.0 3.0 50 71 0 0x0 0 0
r 1.65008 0 2 tcp 1000 ------- 0 0.0 3.0 50 71 0 0x0 0 0
+ 1.65008 2 3 tcp 1000 ------- 0 0.0 3.0 50 71 0 0x0 0 0
- 1.65008 0 2 tcp 1000 ------- 0 0.0 3.0 51 72 0 0x0 0 0
r 1.65108 0 2 tcp 1000 ------- 0 0.0 3.0 51 72 0 0x0 0 0
+ 1.65108 2 3 tcp 1000 ------- 0 0.0 3.0 51 72 0 0x0 0 0
r 1.65908 2 3 tcp 1000 ------- 0 0.0 3.0 38 56 0 0x0 0 0
+ 1.65908 3 2 ack 40 ------- 0 3.0 0.0 38 73 0 0x0 0 0
- 1.65908 3 2 ack 40 ------- 0 3.0 0.0 38 73 0 0x0 0 0
- 1.65908 2 3 tcp 1000 ------- 0 0.0 3.0 48 68 0 0x0 0 0
r 1.66908 2 3 tcp 1000 ------- 0 0.0 3.0 39 57 0 0x0 0 0
- 1.66908 2 3 tcp 1000 ------- 0 0.0 3.0 49 70 0 0x0 0 0
r 1.67908 2 3 tcp 1000 ------- 0 0.0 3.0 40 59 0 0x0 0 0
+ 1.67908 3 2 ack 40 ------- 0 3.0 0.0 40 74 0 0x0 0 0
- 1.67908 3 2 ack 40 ------- 0 3.0 0.0 40 74 0 0x0 0 0
- 1.67908 2 3 tcp 1000 ------- 0 0.0 3.0 50 71 0 0x0 0 0
r 1.68908 2 3 tcp 1000 ------- 0 0.0 3.0 41 60 0 0x0 0 0
- 1.68908 2 3 tcp 1000 ------- 0 0.0 3.0 51 72 0 0x0 0 0
r 1.69908 2 3 tcp 1000 ------- 0 0.0 3.0 42 61 0 0x0 0 0
+ 1.69908 3 2 ack 40 ------- 0 3.0 0.0 42 75 0 0x0 0 0
- 1.69908 3 2 ack 40 ------- 0 3.0 0.0 42 75 0 0x0 0 0
r 1.71908 2 3 tcp 1000 ------- 0 0.0 3.0 43 62 0 0x0 0 0
r 1.71948 3 2 ack 40 ------- 0 3.0 0.0 34 65 0 0x0 0 0
+ 1.71948 2 0 ack 40 ------- 0 3.0 0.0 34 65 0 0x0 0 0
- 1.71948 2 0 ack 40 ------- 0 3.0 0.0 34 65 0 0x0 0 0
r 1.71952 2 0 ack 40 ------- 0 3.0 0.0 34 65 0 0x0 0 0
+ 1.71952 0 2 tcp 1000 ------- 0 0.0 3.0 52 76 0 0x0 0 0
- 1.71952 0 2 tcp 1000 ------- 0 0.0 3.0 52 76 0 0x0 0 0
+ 1.71952 0 2 tcp 1000 ------- 0 0.0 3.0 53 77 0 0x0 0 0
+ 1.71952 0 2 tcp 1000 ------- 0 0.0 3.0 54 78 0 0x0 0 0
r 1.72052 0 2 tcp 1000 ------- 0 0.0 3.0 52 76 0 0x0 0 0
+ 1.72052 2 3 tcp 1000 ------- 0 0.0 3.0 52 76 0 0x0 0 0
- 1.72052 2 3 tcp 1000 ------- 0 0.0 3.0 52 76 0 0x0 0 0
- 1.72052 0 2 tcp 1000 ------- 0 0.0 3.0 53 77 0 0x0 0 0
r 1.72152 0 2 tcp 1000 ------- 0 0.0 3.0 53 77 0 0x0 0 0
+ 1.72152 2 3 tcp 1000 ------- 0 0.0 3.0 53 77 0 0x0 0 0
- 1.72152 0 2 tcp 1000 ------- 0 0.0 3.0 54 78 0 0x0 0 0
r 1.72252 0 2 tcp 1000 ------- 0 0.0 3.0 54 78 0 0x0 0 0
+ 1.72252 2 3 tcp 1000 ------- 0 0.0 3.0 54 78 0 0x0 0 0
r 1.72908 2 3 tcp 1000 ------- 0 0.0 3.0 44 63 0 0x0 0 0
+ 1.72908 3 2 ack 40 ------- 0 3.0 0.0 44 79 0 0x0 0 0
- 1.72908 3 2 ack 40 ------- 0 3.0 0.0 44 79 0 0x0 0 0
- 1.73052 2 3 tcp 1000 ------- 0 0.0 3.0 53 77 0 0x0 0 0
r 1.73908 2 3 tcp 1000 ------- 0 0.0 3.0 45 64 0 0x0 0 0
r 1.73948 3 2 ack 40 ------- 0 3.0 0.0 36 69 0 0x0 0 0
+ 1.73948 2 0 ack 40 ------- 0 3.0 0.0 36 69 0 0x0 0 0
- 1.73948 2 0 ack 40 ------- 0 3.0 0.0 36 69 0 0x0 0 0
r 1.73952 2 0 ack 40 ------- 0 3.0 0.0 36 69 0 0x0 0 0
+ 1.73952 0 2 tcp 1000 ------- 0 0.0 3.0 55 80 0 0x0 0 0
- 1.73952 0 2 tcp 1000 ------- 0 0.0 3.0 55 80 0 0x0 0 0
+ 1.73952 0 2 tcp 1000 ------- 0 0.0 3.0 56 81 0 0x0 0 0
+ 1.73952 0 2 tcp 1000 ------- 0 0.0 3.0 57 82 0 0x0 0 0
- 1.74052 2 3 tcp 1000 ------- 0 0.0 3.0 54 78 0 0x0 0 0
r 1.74052 0 2 tcp 1000 ------- 0 0.0 3.0 55 80 0 0x0 0 0
+ 1.74052 2 3 tcp 1000 ------- 0 0.0 3.0 55 80 0 0x0 0 0
- 1.74052 0 2 tcp 1000 ------- 0 0.0 3.0 56 81 0 0x0 0 0
r 1.74152 0 2 tcp 1000 ------- 0 0.0 3.0 56 81 0 0x0 0 0
+ 1.74152 2 3 tcp 1000 ------- 0 0.0 3.0 56 81 0 0x0 0 0
- 1.74152 0 2 tcp 1000 ------- 0 0.0 3.0 57 82 0 0x0 0 0
r 1.74252 0 2 tcp 1000 ------- 0 0.0 3.0 57 82 0 0x0 0 0
+ 1.74252 2 3 tcp 1000 ------- 0 0.0 3.0 57 82 0 0x0 0 0
r 1.74908 2 3 tcp 1000 ------- 0 0.0 3.0 46 66 0 0x0 0 0
+ 1.74908 3 2 ack 40 ------- 0 3.0 0.0 46 83 0 0x0 0 0
- 1.74908 3 2 ack 40 ------- 0 3.0 0.0 46 83 0 0x0 0 0
- 1.75052 2 3 tcp 1000 ------- 0 0.0 3.0 55 80 0 0x0 0 0
r 1.75908 2 3 tcp 1000 ------- 0 0.0 3.0 47 67 0 0x0 0 0
r 1.75948 3 2 ack 40 ------- 0 3.0 0.0 38 73 0 0x0 0 0
+ 1.75948 2 0 ack 40 ------- 0 3.0 0.0 38 73 0 0x0 0 0
- 1.75948 2 0 ack 40 ------- 0 3.0 0.0 38 73 0 0x0 0 0
r 1.75952 2 0 ack 40 ------- 0 3.0 0.0 38 73 0 0x0 0 0
+ 1.75952 0 2 tcp 1000 ------- 0 0.0 3.0 58 84 0 0x0 0 0
- 1.75952 0 2 tcp 1000 ------- 0 0.0 3.0 58 84 0 0x0 0 0
+ 1.75952 0 2 tcp 1000 ------- 0 0.0 3.0 59 85 0 0x0 0 0
+ 1.75952 0 2 tcp 1000 ------- 0 0.0 3.0 60 86 0 0x0 0 0
- 1.76052 2 3 tcp 1000 ------- 0 0.0 3.0 56 81 0 0x0 0 0
r 1.76052 0 2 tcp 1000 ------- 0 0.0 3.0 58 84 0 0x0 0 0
+ 1.76052 2 3 tcp 1000 ------- 0 0.0 3.0 58 84 0 0x0 0 0
- 1.76052 0 2 tcp 1000 ------- 0 0.0 3.0 59 85 0 0x0 0 0
r 1.76152 0 2 tcp 1000 ------- 0 0.0 3.0 59 85 0 0x0 0 0
+ 1.76152 2 3 tcp 1000 ------- 0 0.0 3.0 59 85 0 0x0 0 0
- 1.76152 0 2 tcp 1000 ------- 0 0.0 3.0 60 86 0 0x0 0 0
r 1.76252 0 2 tcp 1000 ------- 0 0.0 3.0 60 86 0 0x0 0 0
+ 1.76252 2 3 tcp 1000 ------- 0 0.0 3.0 60 86 0 0x0 0 0
r 1.76908 2 3 tcp 1000 ------- 0 0.0 3.0 48 68 0 0x0 0 0
+ 1.76908 3 2 ack 40 ------- 0 3.0 0.0 48 87 0 0x0 0 0
- 1.76908 3 2 ack 40 ------- 0 3.0 0.0 48 87 0 0x0 0 0
- 1.77052 2 3 tcp 1000 ------- 0 0.0 3.0 57 82 0 0x0 0 0
r 1.77908 2 3 tcp 1000 ------- 0 0.0 3.0 49 70 0 0x0 0 0
r 1.77948 3 2 ack 40 ------- 0 3.0 0.0 40 74 0 0x0 0 0
+ 1.77948 2 0 ack 40 ------- 0 3.0 0.0 40 74 0 0x0 0 0
- 1.77948 2 0 ack 40 ------- 0 3.0 0.0 40 74 0 0x0 0 0
r 1.77952 2 0 ack 40 ------- 0 3.0 0.0 40 74 0 0x0 0 0
+ 1.77952 0 2 tcp 1000 ------- 0 0.0 3.0 61 88 0 0x0 0 0
- 1.77952 0 2 tcp 1000 ------- 0 0.0 3.0 61 88 0 0x0 0 0
+ 1.77952 0 2 tcp 1000 ------- 0 0.0 3.0 62 89 0 0x0 0 0
+ 1.77952 0 2 tcp 1000 ------- 0 0.0 3.0 63 90 0 0x0 0 0
- 1.78052 2 3 tcp 1000 ------- 0 0.0 3.0 58 84 0 0x0 0 0
r 1.78052 0 2 tcp 1000 ------- 0 0.0 3.0 61 88 0 0x0 0 0
+ 1.78052 2 3 tcp 1000 ------- 0 0.0 3.0 61 88 0 0x0 0 0
- 1.78052 0 2 tcp 1000 ------- 0 0.0 3.0 62 89 0 0x0 0 0
r 1.78152 0 2 tcp 1000 ------- 0 0.0 3.0 62 89 0 0x0 0 0
+ 1.78152 2 3 tcp 1000 ------- 0 0.0 3.0 62 89 0 0x0 0 0
- 1.78152 0 2 tcp 1000 ------- 0 0.0 3.0 63 90 0 0x0 0 0
r 1.78252 0 2 tcp 1000 ------- 0 0.0 3.0 63 90 0 0x0 0 0
+ 1.78252 2 3 tcp 1000 ------- 0 0.0 3.0 63 90 0 0x0 0 0
r 1.78908 2 3 tcp 1000 ------- 0 0.0 3.0 50 71 0 0x0 0 0
+ 1.78908 3 2 ack 40 ------- 0 3.0 0.0 50 91 0 0x0 0 0
- 1.78908 3 2 ack 40 ------- 0 3.0 0.0 50 91 0 0x0 0 0
- 1.79052 2 3 tcp 1000 ------- 0 0.0 3.0 59 85 0 0x0 0 0
r 1.79908 2 3 tcp 1000 ------- 0 0.0 3.0 51 72 0 0x0 0 0
r 1.79948 3 2 ack 40 ------- 0 3.0 0.0 42 75 0 0x0 0 0
+ 1.79948 2 0 ack 40 ------- 0 3.0 0.0 42 75 0 0x0 0 0
- 1.79948 2 0 ack 40 ------- 0 3.0 0.0 42 75 0 0x0 0 0
r 1.79952 2 0 ack 40 ------- 0 3.0 0.0 42 75 0 0x0 0 0
+ 1.79952 0 2 tcp 1000 ------- 0 0.0 3.0 64 92 0 0x0 0 0
- 1.79952 0 2 tcp 1000 ------- 0 0.0 3.0 64 92 0 0x0 0 0
+ 1.79952 0 2 tcp 1000 ------- 0 0.0 3.0 65 93 0 0x0 0 0
+ 1.79952 0 2 tcp 1000 ------- 0 0.0 3.0 66 94 0 0x0 0 0
- 1.80052 2 3 tcp 1000 ------- 0 0.0 3.0 60 86 0 0x0 0 0
r 1.80052 0 2 tcp 1000 ------- 0 0.0 3.0 64 92 0 0x0 0 0
+ 1.80052 2 3 tcp 1000 ------- 0 0.0 3.0 64 92 0 0x0 0 0
- 1.80052 0 2 tcp 1000 ------- 0 0.0 3.0 65 93 0 0x0 0 0
r 1.80152 0 2 tcp 1000 ------- 0 0.0 3.0 65 93 0 0x0 0 0
+ 1.80152 2 3 tcp 1000 ------- 0 0.0 3.0 65 93 0 0x0 0 0
- 1.80152 0 2 tcp 1000 ------- 0 0.0 3.0 66 94 0 0x0 0 0
r 1.80252 0 2 tcp 1000 ------- 0 0.0 3.0 66 94 0 0x0 0 0
+ 1.80252 2 3 tcp 1000 ------- 0 0.0 3.0 66 94 0 0x0 0 0
- 1.81052 2 3 tcp 1000 ------- 0 0.0 3.0 61 88 0 0x0 0 0