n -t * -a 0.0.0  -s 0 -x 200 -y 100 -Z 0  -z 20 -v circle -c black
n -t * -a 0.0.1  -s 1 -x 100 -y 100 -Z 0  -z 10 -v circle -c black
n -t * -a 0.0.2  -s 2 -x 332.17673468504881 -y 94.379851615233278 -Z 0.0  -z 5 -v circle -c black
n -t * -a 0.0.2  -s 2 -x 332.17673468504881 -y 94.379851615233278 -Z 0.0  -z 5 -v circle -c black
n -t * -a 0.0.2  -s 2 -x 332.17673468504881 -y 94.379851615233278 -Z 0.0  -z 5 -v circle -c black
n -t * -a 0.0.2  -s 2 -x 332.17673468504881 -y 94.379851615233278 -Z 0.0  -z 5 -v circle -c black
n -t * -a 0.0.2  -s 2 -x 332.17673468504881 -y 94.379851615233278 -Z 0.0  -z 5 -v circle -c black
n -t * -a 0.0.2  -s 2 -x 332.17673468504881 -y 94.379851615233278 -Z 0.0  -z 5 -v circle -c black
n -t * -a 0.0.2  -s 2 -x 332.17673468504881 -y 94.379851615233278 -Z 0.0  -z 5 -v circle -c black
n -t * -a 0.0.2  -s 2 -x 332.17673468504881 -y 94.379851615233278 -Z 0.0  -z 5 -v circle -c black
n -t * -a 0.0.2  -s 2 -x 332.17673468504881 -y 94.379851615233278 -Z 0.0  -z 5 -v circle -c black
n -t * -a 0.0.2  -s 2 -x 332.17673468504881 -y 94.379851615233278 -Z 0.0  -z 5 -v circle -c black
n -t * -a 0.0.2  -s 2 -x 332.17673468504881 -y 94.379851615233278 -Z 0.0  -z 5 -v circle -c black
n -t * -a 0.0.2  -s 2 -x 332.17673468504881 -y 94.379851615233278 -Z 0.0  -z 5 -v circle -c black
n -t * -a 0.0.2  -s 2 -x 332.17673468504881 -y 94.379851615233278 -Z 0.0  -z 5 -v circle -c black
n -t * -a 0.0.2  -s 2 -x 332.17673468504881 -y 94.379851615233278 -Z 0.0  -z 5 -v circle -c black
n -t * -a 0.0.2  -s 2 -x 332.17673468504881 -y 94.379851615233278 -Z 0.0  -z 5 -v circle -c black
n -t * -a 0.0.2  -s 2 -x 332.17673468504881 -y 94.379851615233278 -Z 0.0  -z 5 -v circle -c black
n -t * -a 0.0.2  -s 2 -x 332.17673468504881 -y 94.379851615233278 -Z 0.0  -z 5 -v circle -c black
n -t * -a 0.0.2  -s 2 -x 332.17673468504881 -y 94.379851615233278 -Z 0.0  -z 5 -v circle -c black
n -t * -a 0.0.2  -s 2 -x 332.17673468504881 -y 94.379851615233278 -Z 0.0  -z 5 -v circle -c black
n -t * -a 0.0.2  -s 2 -x 332.17673468504881 -y 94.379851615233278 -Z 0.0  -z 5 -v circle -c black
n -t * -a 1.0.0  -s 22 -x 300 -y 100 -Z 0  -z 10 -v circle -c black
n -t * -a 2.0.0  -s 23 -x 350 -y 100 -Z 0  -z 10 -v circle -c black
n -t * -a 4.0.0  -s 24 -x 400 -y 100 -Z 0  -z 5 -v circle -c black
n -t * -a 3.0.0  -s 45 -x 200 -y 50 -Z 0  -z 10 -v circle -c black
V -t * -v 1.0a5 -a 0
W -t * -x 800 -y 800
A -t * -n 3 -p 0 -o 0xffffffff -c 31 -a 1
A -t * -h 1 -m 1023 -s 22
A -t * -h 2 -m 2047 -s 11
A -t * -h 3 -m 2047 -s 0
c -t * -i 1 -n Blue
c -t * -i 2 -n Red
n -t * -a 0.0.17 -s 17 -S UP -v circle -c red -i red -x 234.279181917328 -y 80.210484531806074 -Z 0.0
n -t * -a 0.0.0 -s 0 -S UP -v circle -c yellow -i yellow -x 200 -y 100 -Z 0
n -t * -a 0.0.18 -s 18 -S UP -v circle -c red -i red -x 297.61352606472258 -y 190.53256979236966 -Z 0.0
n -t * -a 0.0.1 -s 1 -S UP -v circle -c blue -i blue -x 100 -y 100 -Z 0
n -t * -a 0.0.20 -s 20 -S UP -v circle -c red -i red -x 382.46620080082965 -y 59.436859544104365 -Z 0.0
n -t * -a 0.0.19 -s 19 -S UP -v circle -c red -i red -x 180.90050035663904 -y 344.70949403229611 -Z 0.0
n -t * -a 0.0.2 -s 2 -S UP -v circle -c red -i red -x 332.17673468504881 -y 94.379851615233278 -Z 0.0
n -t * -a 0.0.21 -s 21 -S UP -v circle -c red -i red -x 105.2983577620696 -y 199.49890710390122 -Z 0.0
n -t * -a 0.0.3 -s 3 -S UP -v circle -c red -i red -x 92.166097225698692 -y 335.59607231784429 -Z 0.0
n -t * -a 1.0.0 -s 22 -S UP -v circle -c blue -i blue -x 300 -y 100 -Z 0
n -t * -a 0.0.4 -s 4 -S UP -v circle -c red -i red -x 163.18744600898935 -y 141.40507308366014 -Z 0.0
n -t * -a 2.0.0 -s 23 -S UP -v circle -c blue -i blue -x 350 -y 100 -Z 0
n -t * -a 0.0.5 -s 5 -S UP -v circle -c red -i red -x 145.06331707586688 -y 379.17009409478402 -Z 0.0
n -t * -a 4.0.0 -s 24 -S UP -v circle -c black -i black -x 400 -y 100 -Z 0
n -t * -a 0.0.6 -s 6 -S UP -v circle -c red -i red -x 311.77145103540806 -y 142.77755210305449 -Z 0.0
n -t * -a 0.0.7 -s 7 -S UP -v circle -c red -i red -x 112.31819603700107 -y 231.92079387694633 -Z 0.0
n -t * -a 0.0.8 -s 8 -S UP -v circle -c red -i red -x 342.78268983717197 -y 198.66809335009572 -Z 0.0
n -t * -a 3.0.0 -s 45 -S UP -v circle -c red -i red -x 200 -y 50 -Z 0
n -t * -a 0.0.9 -s 9 -S UP -v circle -c red -i red -x 64.644935058730155 -y 137.42353207777421 -Z 0.0
n -t * -a 0.0.10 -s 10 -S UP -v circle -c red -i red -x 77.303631150770769 -y 92.128751004174703 -Z 0.0
n -t * -a 0.0.11 -s 11 -S UP -v circle -c red -i red -x 57.918127164206524 -y 129.96324881909567 -Z 0.0
n -t * -a 0.0.12 -s 12 -S UP -v circle -c red -i red -x 342.32290254082665 -y 171.02300367365731 -Z 0.0
n -t * -a 0.0.13 -s 13 -S UP -v circle -c red -i red -x 233.62274315842558 -y 247.44426365822753 -Z 0.0
n -t * -a 0.0.14 -s 14 -S UP -v circle -c red -i red -x 145.73930382995832 -y 190.47947010979033 -Z 0.0
n -t * -a 0.0.15 -s 15 -S UP -v circle -c red -i red -x 338.45413524585501 -y 248.65107708547779 -Z 0.0
n -t * -a 0.0.16 -s 16 -S UP -v circle -c red -i red -x 128.65257562541058 -y 363.83853627547552 -Z 0.0
l -t * -s 1 -d 0 -S UP -r 622000000 -D 0.014999999999999999 -c black
l -t * -s 0 -d 22 -S UP -r 622000000 -D 0.00040000000000000002 -c black
l -t * -s 22 -d 23 -S UP -r 4976000000 -D 0.01 -c black
l -t * -s 23 -d 24 -S UP -r 80000000 -D 0.014999999999999999 -c black
l -t * -s 45 -d 23 -S UP -r 80000000 -D 0.014999999999999999 -c black
+ -t 0.100083958 -s 45 -d -1 -p CM8 -e 64 -c 2 -a 0 -i 0 -k MAC 
- -t 0.100083958 -s 45 -d -1 -p CM8 -e 64 -c 2 -a 0 -i 0 -k MAC
h -t 0.100083958 -s 45 -d -1 -p CM8 -e 64 -c 2 -a 0 -i 0 -k MAC
+ -t 0.200083958 -s 45 -d -1 -p CM8 -e 64 -c 2 -a 0 -i 0 -k MAC 
- -t 0.200083958 -s 45 -d -1 -p CM8 -e 64 -c 2 -a 0 -i 0 -k MAC
h -t 0.200083958 -s 45 -d -1 -p CM8 -e 64 -c 2 -a 0 -i 0 -k MAC
+ -t 0.300083958 -s 45 -d -1 -p CM8 -e 64 -c 2 -a 0 -i 0 -k MAC 
- -t 0.300083958 -s 45 -d -1 -p CM8 -e 64 -c 2 -a 0 -i 0 -k MAC
h -t 0.300083958 -s 45 -d -1 -p CM8 -e 64 -c 2 -a 0 -i 0 -k MAC
+ -t 0.400083958 -s 45 -d -1 -p CM8 -e 64 -c 2 -a 0 -i 0 -k MAC 
- -t 0.400083958 -s 45 -d -1 -p CM8 -e 64 -c 2 -a 0 -i 0 -k MAC
h -t 0.400083958 -s 45 -d -1 -p CM8 -e 64 -c 2 -a 0 -i 0 -k MAC
+ -t 0.500083958 -s 45 -d -1 -p CM8 -e 64 -c 2 -a 0 -i 0 -k MAC 
- -t 0.500083958 -s 45 -d -1 -p CM8 -e 64 -c 2 -a 0 -i 0 -k MAC
h -t 0.500083958 -s 45 -d -1 -p CM8 -e 64 -c 2 -a 0 -i 0 -k MAC
+ -t 0.600083958 -s 45 -d -1 -p CM8 -e 64 -c 2 -a 0 -i 0 -k MAC 
- -t 0.600083958 -s 45 -d -1 -p CM8 -e 64 -c 2 -a 0 -i 0 -k MAC
h -t 0.600083958 -s 45 -d -1 -p CM8 -e 64 -c 2 -a 0 -i 0 -k MAC
+ -t 0.700083958 -s 45 -d -1 -p CM8 -e 64 -c 2 -a 0 -i 0 -k MAC 
- -t 0.700083958 -s 45 -d -1 -p CM8 -e 64 -c 2 -a 0 -i 0 -k MAC
h -t 0.700083958 -s 45 -d -1 -p CM8 -e 64 -c 2 -a 0 -i 0 -k MAC
+ -t 0.800083958 -s 45 -d -1 -p CM8 -e 64 -c 2 -a 0 -i 0 -k MAC 
- -t 0.800083958 -s 45 -d -1 -p CM8 -e 64 -c 2 -a 0 -i 0 -k MAC
h -t 0.800083958 -s 45 -d -1 -p CM8 -e 64 -c 2 -a 0 -i 0 -k MAC
+ -t 0.900083958 -s 45 -d -1 -p CM8 -e 64 -c 2 -a 0 -i 0 -k MAC 
- -t 0.900083958 -s 45 -d -1 -p CM8 -e 64 -c 2 -a 0 -i 0 -k MAC
h -t 0.900083958 -s 45 -d -1 -p CM8 -e 64 -c 2 -a 0 -i 0 -k MAC
+ -t 1.000083958 -s 45 -d -1 -p CM8 -e 64 -c 2 -a 0 -i 0 -k MAC 
- -t 1.000083958 -s 45 -d -1 -p CM8 -e 64 -c 2 -a 0 -i 0 -k MAC
h -t 1.000083958 -s 45 -d -1 -p CM8 -e 64 -c 2 -a 0 -i 0 -k MAC
+ -t 1.000435000 -s 47 -d -1 -p ARP -e 88 -c 2 -a 0 -i 0 -k MAC 
- -t 1.000435000 -s 47 -d -1 -p ARP -e 88 -c 2 -a 0 -i 0 -k MAC
h -t 1.000435000 -s 47 -d -1 -p ARP -e 88 -c 2 -a 0 -i 0 -k MAC
d -t 1.000673607 -s 65 -d -1 -p ARP -e 88 -c 2 -a 0 -i 0 -k MAC
d -t 1.000673613 -s 60 -d -1 -p ARP -e 88 -c 2 -a 0 -i 0 -k MAC
d -t 1.000673683 -s 51 -d -1 -p ARP -e 88 -c 2 -a 0 -i 0 -k MAC
d -t 1.000673740 -s 64 -d -1 -p ARP -e 88 -c 2 -a 0 -i 0 -k MAC
d -t 1.000673749 -s 61 -d -1 -p ARP -e 88 -c 2 -a 0 -i 0 -k MAC
d -t 1.000673760 -s 56 -d -1 -p ARP -e 88 -c 2 -a 0 -i 0 -k MAC
d -t 1.000673763 -s 48 -d -1 -p ARP -e 88 -c 2 -a 0 -i 0 -k MAC
d -t 1.000673771 -s 54 -d -1 -p ARP -e 88 -c 2 -a 0 -i 0 -k MAC
d -t 1.000673776 -s 57 -d -1 -p ARP -e 88 -c 2 -a 0 -i 0 -k MAC
d -t 1.000673852 -s 52 -d -1 -p ARP -e 88 -c 2 -a 0 -i 0 -k MAC
d -t 1.000673873 -s 46 -d -1 -p ARP -e 88 -c 2 -a 0 -i 0 -k MAC
d -t 1.000673892 -s 50 -d -1 -p ARP -e 88 -c 2 -a 0 -i 0 -k MAC
d -t 1.000673921 -s 58 -d -1 -p ARP -e 88 -c 2 -a 0 -i 0 -k MAC
d -t 1.000673923 -s 55 -d -1 -p ARP -e 88 -c 2 -a 0 -i 0 -k MAC
d -t 1.000673932 -s 59 -d -1 -p ARP -e 88 -c 2 -a 0 -i 0 -k MAC
d -t 1.000673940 -s 49 -d -1 -p ARP -e 88 -c 2 -a 0 -i 0 -k MAC
d -t 1.000673948 -s 63 -d -1 -p ARP -e 88 -c 2 -a 0 -i 0 -k MAC
d -t 1.000674037 -s 62 -d -1 -p ARP -e 88 -c 2 -a 0 -i 0 -k MAC
d -t 1.000674053 -s 53 -d -1 -p ARP -e 88 -c 2 -a 0 -i 0 -k MAC
d -t 1.013875000 -s 47 -d 45 -p cbr -e 777 -c 2 -a 0 -i 14 -k IFQ
+ -t 1.013950000 -s 47 -d -1 -p ARP -e 88 -c 2 -a 0 -i 0 -k MAC 
- -t 1.013950000 -s 47 -d -1 -p ARP -e 88 -c 2 -a 0 -i 0 -k MAC
h -t 1.013950000 -s 47 -d -1 -p ARP -e 88 -c 2 -a 0 -i 0 -k MAC
d -t 1.014188607 -s 65 -d -1 -p ARP -e 88 -c 2 -a 0 -i 0 -k MAC
d -t 1.014188613 -s 60 -d -1 -p ARP -e 88 -c 2 -a 0 -i 0 -k MAC
d -t 1.014188683 -s 51 -d -1 -p ARP -e 88 -c 2 -a 0 -i 0 -k MAC
d -t 1.014188740 -s 64 -d -1 -p ARP -e 88 -c 2 -a 0 -i 0 -k MAC
d -t 1.014188749 -s 61 -d -1 -p ARP -e 88 -c 2 -a 0 -i 0 -k MAC
d -t 1.014188760 -s 56 -d -1 -p ARP -e 88 -c 2 -a 0 -i 0 -k MAC
d -t 1.014188763 -s 48 -d -1 -p ARP -e 88 -c 2 -a 0 -i 0 -k MAC
d -t 1.014188771 -s 54 -d -1 -p ARP -e 88 -c 2 -a 0 -i 0 -k MAC
d -t 1.014188776 -s 57 -d -1 -p ARP -e 88 -c 2 -a 0 -i 0 -k MAC
d -t 1.014188852 -s 52 -d -1 -p ARP -e 88 -c 2 -a 0 -i 0 -k MAC
d -t 1.014188873 -s 46 -d -1 -p ARP -e 88 -c 2 -a 0 -i 0 -k MAC
d -t 1.014188892 -s 50 -d -1 -p ARP -e 88 -c 2 -a 0 -i 0 -k MAC
d -t 1.014188921 -s 58 -d -1 -p ARP -e 88 -c 2 -a 0 -i 0 -k MAC
d -t 1.014188923 -s 55 -d -1 -p ARP -e 88 -c 2 -a 0 -i 0 -k MAC
d -t 1.014188932 -s 59 -d -1 -p ARP -e 88 -c 2 -a 0 -i 0 -k MAC
d -t 1.014188940 -s 49 -d -1 -p ARP -e 88 -c 2 -a 0 -i 0 -k MAC
d -t 1.014188948 -s 63 -d -1 -p ARP -e 88 -c 2 -a 0 -i 0 -k MAC
d -t 1.014189037 -s 62 -d -1 -p ARP -e 88 -c 2 -a 0 -i 0 -k MAC
d -t 1.014189053 -s 53 -d -1 -p ARP -e 88 -c 2 -a 0 -i 0 -k MAC
d -t 1.027750000 -s 47 -d 45 -p cbr -e 777 -c 2 -a 0 -i 17 -k IFQ
+ -t 1.027905000 -s 47 -d -1 -p ARP -e 88 -c 2 -a 0 -i 0 -k MAC 
- -t 1.027905000 -s 47 -d -1 -p ARP -e 88 -c 2 -a 0 -i 0 -k MAC
h -t 1.027905000 -s 47 -d -1 -p ARP -e 88 -c 2 -a 0 -i 0 -k MAC
d -t 1.028143607 -s 65 -d -1 -p ARP -e 88 -c 2 -a 0 -i 0 -k MAC
d -t 1.028143613 -s 60 -d -1 -p ARP -e 88 -c 2 -a 0 -i 0 -k MAC
d -t 1.028143683 -s 51 -d -1 -p ARP -e 88 -c 2 -a 0 -i 0 -k MAC
d -t 1.028143740 -s 64 -d -1 -p ARP -e 88 -c 2 -a 0 -i 0 -k MAC
d -t 1.028143749 -s 61 -d -1 -p ARP -e 88 -c 2 -a 0 -i 0 -k MAC
d -t 1.028143760 -s 56 -d -1 -p ARP -e 88 -c 2 -a 0 -i 0 -k MAC
d -t 1.028143763 -s 48 -d -1 -p ARP -e 88 -c 2 -a 0 -i 0 -k MAC
d -t 1.028143771 -s 54 -d -1 -p ARP -e 88 -c 2 -a 0 -i 0 -k MAC
d -t 1.028143776 -s 57 -d -1 -p ARP -e 88 -c 2 -a 0 -i 0 -k MAC
d -t 1.028143852 -s 52 -d -1 -p ARP -e 88 -c 2 -a 0 -i 0 -k MAC
d -t 1.028143873 -s 46 -d -1 -p ARP -e 88 -c 2 -a 0 -i 0 -k MAC
d -t 1.028143892 -s 50 -d -1 -p ARP -e 88 -c 2 -a 0 -i 0 -k MAC
d -t 1.028143921 -s 58 -d -1 -p ARP -e 88 -c 2 -a 0 -i 0 -k MAC
d -t 1.028143923 -s 55 -d -1 -p ARP -e 88 -c 2 -a 0 -i 0 -k MAC
d -t 1.028143932 -s 59 -d -1 -p ARP -e 88 -c 2 -a 0 -i 0 -k MAC
d -t 1.028143940 -s 49 -d -1 -p ARP -e 88 -c 2 -a 0 -i 0 -k MAC
d -t 1.028143948 -s 63 -d -1 -p ARP -e 88 -c 2 -a 0 -i 0 -k MAC
d -t 1.028144037 -s 62 -d -1 -p ARP -e 88 -c 2 -a 0 -i 0 -k MAC
d -t 1.028144053 -s 53 -d -1 -p ARP -e 88 -c 2 -a 0 -i 0 -k MAC
+ -t 1.040015 -s 1 -d 0 -p AM_Data -e 40 -c 0 -i 13 -a 0 -x {5.0.0.0 3.0.2.0 -1 ------- null}
- -t 1.040015 -s 1 -d 0 -p AM_Data -e 40 -c 0 -i 13 -a 0 -x {5.0.0.0 3.0.2.0 -1 ------- null}
h -t 1.040015 -s 1 -d 0 -p AM_Data -e 40 -c 0 -i 13 -a 0 -x {5.0.0.0 3.0.2.0 -1 ------- null}
+ -t 1.040015 -s 1 -d 0 -p AM_Data -e 40 -c 0 -i 13 -a 0 -x {5.0.0.0 3.0.2.0 -1 ------- null}
+ -t 1.040015 -s 1 -d 0 -p AM_Data -e 40 -c 0 -i 13 -a 0 -x {5.0.0.0 3.0.2.0 -1 ------- null}
+ -t 1.040015 -s 1 -d 0 -p AM_Data -e 40 -c 0 -i 13 -a 0 -x {5.0.0.0 3.0.2.0 -1 ------- null}
+ -t 1.040015 -s 1 -d 0 -p AM_Data -e 40 -c 0 -i 13 -a 0 -x {5.0.0.0 3.0.2.0 -1 ------- null}
+ -t 1.040015 -s 1 -d 0 -p AM_Data -e 40 -c 0 -i 13 -a 0 -x {5.0.0.0 3.0.2.0 -1 ------- null}
+ -t 1.040015 -s 1 -d 0 -p AM_Data -e 40 -c 0 -i 13 -a 0 -x {5.0.0.0 3.0.2.0 -1 ------- null}
+ -t 1.040015 -s 1 -d 0 -p AM_Data -e 40 -c 0 -i 13 -a 0 -x {5.0.0.0 3.0.2.0 -1 ------- null}
+ -t 1.040015 -s 1 -d 0 -p AM_Data -e 40 -c 0 -i 13 -a 0 -x {5.0.0.0 3.0.2.0 -1 ------- null}
+ -t 1.040015 -s 1 -d 0 -p AM_Data -e 40 -c 0 -i 13 -a 0 -x {5.0.0.0 3.0.2.0 -1 ------- null}
+ -t 1.040015 -s 1 -d 0 -p AM_Data -e 40 -c 0 -i 13 -a 0 -x {5.0.0.0 3.0.2.0 -1 ------- null}
+ -t 1.040015 -s 1 -d 0 -p AM_Data -e 40 -c 0 -i 13 -a 0 -x {5.0.0.0 3.0.2.0 -1 ------- null}
+ -t 1.040015 -s 1 -d 0 -p AM_Data -e 40 -c 0 -i 13 -a 0 -x {5.0.0.0 3.0.2.0 -1 ------- null}
+ -t 1.040015 -s 1 -d 0 -p AM_Data -e 40 -c 0 -i 13 -a 0 -x {5.0.0.0 3.0.2.0 -1 ------- null}
+ -t 1.040015 -s 1 -d 0 -p AM_Data -e 40 -c 0 -i 13 -a 0 -x {5.0.0.0 3.0.2.0 -1 ------- null}
+ -t 1.040015 -s 1 -d 0 -p AM_Data -e 40 -c 0 -i 13 -a 0 -x {5.0.0.0 3.0.2.0 -1 ------- null}
+ -t 1.040015 -s 1 -d 0 -p AM_Data -e 40 -c 0 -i 13 -a 0 -x {5.0.0.0 3.0.2.0 -1 ------- null}
+ -t 1.040015 -s 1 -d 0 -p AM_Data -e 40 -c 0 -i 16 -a 0 -x {5.0.0.0 3.0.2.0 -1 ------- null}
+ -t 1.040015 -s 1 -d 0 -p AM_Data -e 40 -c 0 -i 16 -a 0 -x {5.0.0.0 3.0.2.0 -1 ------- null}
+ -t 1.040015 -s 1 -d 0 -p AM_Data -e 40 -c 0 -i 16 -a 0 -x {5.0.0.0 3.0.2.0 -1 ------- null}
+ -t 1.040015 -s 1 -d 0 -p AM_Data -e 40 -c 0 -i 16 -a 0 -x {5.0.0.0 3.0.2.0 -1 ------- null}
+ -t 1.040015 -s 1 -d 0 -p AM_Data -e 40 -c 0 -i 16 -a 0 -x {5.0.0.0 3.0.2.0 -1 ------- null}
+ -t 1.040015 -s 1 -d 0 -p AM_Data -e 40 -c 0 -i 16 -a 0 -x {5.0.0.0 3.0.2.0 -1 ------- null}
+ -t 1.040015 -s 1 -d 0 -p AM_Data -e 40 -c 0 -i 16 -a 0 -x {5.0.0.0 3.0.2.0 -1 ------- null}
- -t 1.04001551446945 -s 1 -d 0 -p AM_Data -e 40 -c 0 -i 13 -a 0 -x {5.0.0.0 3.0.2.0 -1 ------- null}
h -t 1.04001551446945 -s 1 -d 0 -p AM_Data -e 40 -c 0 -i 13 -a 0 -x {5.0.0.0 3.0.2.0 -1 ------- null}
- -t 1.04001602893891 -s 1 -d 0 -p AM_Data -e 40 -c 0 -i 13 -a 0 -x {5.0.0.0 3.0.2.0 -1 ------- null}
h -t 1.04001602893891 -s 1 -d 0 -p AM_Data -e 40 -c 0 -i 13 -a 0 -x {5.0.0.0 3.0.2.0 -1 ------- null}
- -t 1.04001654340836 -s 1 -d 0 -p AM_Data -e 40 -c 0 -i 13 -a 0 -x {5.0.0.0 3.0.2.0 -1 ------- null}
h -t 1.04001654340836 -s 1 -d 0 -p AM_Data -e 40 -c 0 -i 13 -a 0 -x {5.0.0.0 3.0.2.0 -1 ------- null}
- -t 1.04001705787781 -s 1 -d 0 -p AM_Data -e 40 -c 0 -i 13 -a 0 -x {5.0.0.0 3.0.2.0 -1 ------- null}
h -t 1.04001705787781 -s 1 -d 0 -p AM_Data -e 40 -c 0 -i 13 -a 0 -x {5.0.0.0 3.0.2.0 -1 ------- null}
- -t 1.04001757234727 -s 1 -d 0 -p AM_Data -e 40 -c 0 -i 13 -a 0 -x {5.0.0.0 3.0.2.0 -1 ------- null}
h -t 1.04001757234727 -s 1 -d 0 -p AM_Data -e 40 -c 0 -i 13 -a 0 -x {5.0.0.0 3.0.2.0 -1 ------- null}
- -t 1.04001808681672 -s 1 -d 0 -p AM_Data -e 40 -c 0 -i 13 -a 0 -x {5.0.0.0 3.0.2.0 -1 ------- null}
h -t 1.04001808681672 -s 1 -d 0 -p AM_Data -e 40 -c 0 -i 13 -a 0 -x {5.0.0.0 3.0.2.0 -1 ------- null}
- -t 1.04001860128617 -s 1 -d 0 -p AM_Data -e 40 -c 0 -i 13 -a 0 -x {5.0.0.0 3.0.2.0 -1 ------- null}
h -t 1.04001860128617 -s 1 -d 0 -p AM_Data -e 40 -c 0 -i 13 -a 0 -x {5.0.0.0 3.0.2.0 -1 ------- null}
- -t 1.04001911575563 -s 1 -d 0 -p AM_Data -e 40 -c 0 -i 13 -a 0 -x {5.0.0.0 3.0.2.0 -1 ------- null}
h -t 1.04001911575563 -s 1 -d 0 -p AM_Data -e 40 -c 0 -i 13 -a 0 -x {5.0.0.0 3.0.2.0 -1 ------- null}
- -t 1.04001963022508 -s 1 -d 0 -p AM_Data -e 40 -c 0 -i 13 -a 0 -x {5.0.0.0 3.0.2.0 -1 ------- null}
h -t 1.04001963022508 -s 1 -d 0 -p AM_Data -e 40 -c 0 -i 13 -a 0 -x {5.0.0.0 3.0.2.0 -1 ------- null}
- -t 1.04002014469454 -s 1 -d 0 -p AM_Data -e 40 -c 0 -i 13 -a 0 -x {5.0.0.0 3.0.2.0 -1 ------- null}
h -t 1.04002014469454 -s 1 -d 0 -p AM_Data -e 40 -c 0 -i 13 -a 0 -x {5.0.0.0 3.0.2.0 -1 ------- null}
- -t 1.04002065916399 -s 1 -d 0 -p AM_Data -e 40 -c 0 -i 13 -a 0 -x {5.0.0.0 3.0.2.0 -1 ------- null}
h -t 1.04002065916399 -s 1 -d 0 -p AM_Data -e 40 -c 0 -i 13 -a 0 -x {5.0.0.0 3.0.2.0 -1 ------- null}
- -t 1.04002117363344 -s 1 -d 0 -p AM_Data -e 40 -c 0 -i 13 -a 0 -x {5.0.0.0 3.0.2.0 -1 ------- null}
h -t 1.04002117363344 -s 1 -d 0 -p AM_Data -e 40 -c 0 -i 13 -a 0 -x {5.0.0.0 3.0.2.0 -1 ------- null}
- -t 1.0400216881029 -s 1 -d 0 -p AM_Data -e 40 -c 0 -i 13 -a 0 -x {5.0.0.0 3.0.2.0 -1 ------- null}
h -t 1.0400216881029 -s 1 -d 0 -p AM_Data -e 40 -c 0 -i 13 -a 0 -x {5.0.0.0 3.0.2.0 -1 ------- null}
- -t 1.04002220257235 -s 1 -d 0 -p AM_Data -e 40 -c 0 -i 13 -a 0 -x {5.0.0.0 3.0.2.0 -1 ------- null}
h -t 1.04002220257235 -s 1 -d 0 -p AM_Data -e 40 -c 0 -i 13 -a 0 -x {5.0.0.0 3.0.2.0 -1 ------- null}
- -t 1.0400227170418 -s 1 -d 0 -p AM_Data -e 40 -c 0 -i 13 -a 0 -x {5.0.0.0 3.0.2.0 -1 ------- null}
h -t 1.0400227170418 -s 1 -d 0 -p AM_Data -e 40 -c 0 -i 13 -a 0 -x {5.0.0.0 3.0.2.0 -1 ------- null}
- -t 1.04002323151126 -s 1 -d 0 -p AM_Data -e 40 -c 0 -i 13 -a 0 -x {5.0.0.0 3.0.2.0 -1 ------- null}
h -t 1.04002323151126 -s 1 -d 0 -p AM_Data -e 40 -c 0 -i 13 -a 0 -x {5.0.0.0 3.0.2.0 -1 ------- null}
- -t 1.04002374598071 -s 1 -d 0 -p AM_Data -e 40 -c 0 -i 16 -a 0 -x {5.0.0.0 3.0.2.0 -1 ------- null}
h -t 1.04002374598071 -s 1 -d 0 -p AM_Data -e 40 -c 0 -i 16 -a 0 -x {5.0.0.0 3.0.2.0 -1 ------- null}
- -t 1.04002426045016 -s 1 -d 0 -p AM_Data -e 40 -c 0 -i 16 -a 0 -x {5.0.0.0 3.0.2.0 -1 ------- null}
h -t 1.04002426045016 -s 1 -d 0 -p AM_Data -e 40 -c 0 -i 16 -a 0 -x {5.0.0.0 3.0.2.0 -1 ------- null}
- -t 1.04002477491962 -s 1 -d 0 -p AM_Data -e 40 -c 0 -i 16 -a 0 -x {5.0.0.0 3.0.2.0 -1 ------- null}
h -t 1.04002477491962 -s 1 -d 0 -p AM_Data -e 40 -c 0 -i 16 -a 0 -x {5.0.0.0 3.0.2.0 -1 ------- null}
- -t 1.04002528938907 -s 1 -d 0 -p AM_Data -e 40 -c 0 -i 16 -a 0 -x {5.0.0.0 3.0.2.0 -1 ------- null}
h -t 1.04002528938907 -s 1 -d 0 -p AM_Data -e 40 -c 0 -i 16 -a 0 -x {5.0.0.0 3.0.2.0 -1 ------- null}
- -t 1.04002580385852 -s 1 -d 0 -p AM_Data -e 40 -c 0 -i 16 -a 0 -x {5.0.0.0 3.0.2.0 -1 ------- null}
h -t 1.04002580385852 -s 1 -d 0 -p AM_Data -e 40 -c 0 -i 16 -a 0 -x {5.0.0.0 3.0.2.0 -1 ------- null}
- -t 1.04002631832798 -s 1 -d 0 -p AM_Data -e 40 -c 0 -i 16 -a 0 -x {5.0.0.0 3.0.2.0 -1 ------- null}
h -t 1.04002631832798 -s 1 -d 0 -p AM_Data -e 40 -c 0 -i 16 -a 0 -x {5.0.0.0 3.0.2.0 -1 ------- null}
- -t 1.04002683279743 -s 1 -d 0 -p AM_Data -e 40 -c 0 -i 16 -a 0 -x {5.0.0.0 3.0.2.0 -1 ------- null}
h -t 1.04002683279743 -s 1 -d 0 -p AM_Data -e 40 -c 0 -i 16 -a 0 -x {5.0.0.0 3.0.2.0 -1 ------- null}
d -t 1.041625000 -s 47 -d 45 -p cbr -e 777 -c 2 -a 0 -i 20 -k RTR
d -t 1.041625000 -s 47 -d 45 -p cbr -e 777 -c 2 -a 0 -i 23 -k RTR
r -t 1.05501551446945 -s 1 -d 0 -p AM_Data -e 40 -c 0 -i 13 -a 0 -x {5.0.0.0 3.0.2.0 -1 ------- null}
r -t 1.05501602893891 -s 1 -d 0 -p AM_Data -e 40 -c 0 -i 13 -a 0 -x {5.0.0.0 3.0.2.0 -1 ------- null}
r -t 1.05501654340836 -s 1 -d 0 -p AM_Data -e 40 -c 0 -i 13 -a 0 -x {5.0.0.0 3.0.2.0 -1 ------- null}
r -t 1.05501705787781 -s 1 -d 0 -p AM_Data -e 40 -c 0 -i 13 -a 0 -x {5.0.0.0 3.0.2.0 -1 ------- null}
r -t 1.05501757234727 -s 1 -d 0 -p AM_Data -e 40 -c 0 -i 13 -a 0 -x {5.0.0.0 3.0.2.0 -1 ------- null}
r -t 1.05501808681672 -s 1 -d 0 -p AM_Data -e 40 -c 0 -i 13 -a 0 -x {5.0.0.0 3.0.2.0 -1 ------- null}
r -t 1.05501860128617 -s 1 -d 0 -p AM_Data -e 40 -c 0 -i 13 -a 0 -x {5.0.0.0 3.0.2.0 -1 ------- null}
r -t 1.05501911575563 -s 1 -d 0 -p AM_Data -e 40 -c 0 -i 13 -a 0 -x {5.0.0.0 3.0.2.0 -1 ------- null}
r -t 1.05501963022508 -s 1 -d 0 -p AM_Data -e 40 -c 0 -i 13 -a 0 -x {5.0.0.0 3.0.2.0 -1 ------- null}
r -t 1.05502014469454 -s 1 -d 0 -p AM_Data -e 40 -c 0 -i 13 -a 0 -x {5.0.0.0 3.0.2.0 -1 ------- null}
r -t 1.05502065916399 -s 1 -d 0 -p AM_Data -e 40 -c 0 -i 13 -a 0 -x {5.0.0.0 3.0.2.0 -1 ------- null}
r -t 1.05502117363344 -s 1 -d 0 -p AM_Data -e 40 -c 0 -i 13 -a 0 -x {5.0.0.0 3.0.2.0 -1 ------- null}
r -t 1.0550216881029 -s 1 -d 0 -p AM_Data -e 40 -c 0 -i 13 -a 0 -x {5.0.0.0 3.0.2.0 -1 ------- null}
r -t 1.05502220257235 -s 1 -d 0 -p AM_Data -e 40 -c 0 -i 13 -a 0 -x {5.0.0.0 3.0.2.0 -1 ------- null}
r -t 1.0550227170418 -s 1 -d 0 -p AM_Data -e 40 -c 0 -i 13 -a 0 -x {5.0.0.0 3.0.2.0 -1 ------- null}
r -t 1.05502323151126 -s 1 -d 0 -p AM_Data -e 40 -c 0 -i 13 -a 0 -x {5.0.0.0 3.0.2.0 -1 ------- null}
r -t 1.05502374598071 -s 1 -d 0 -p AM_Data -e 40 -c 0 -i 13 -a 0 -x {5.0.0.0 3.0.2.0 -1 ------- null}
r -t 1.05502426045016 -s 1 -d 0 -p AM_Data -e 40 -c 0 -i 16 -a 0 -x {5.0.0.0 3.0.2.0 -1 ------- null}
r -t 1.05502477491962 -s 1 -d 0 -p AM_Data -e 40 -c 0 -i 16 -a 0 -x {5.0.0.0 3.0.2.0 -1 ------- null}
r -t 1.05502528938907 -s 1 -d 0 -p AM_Data -e 40 -c 0 -i 16 -a 0 -x {5.0.0.0 3.0.2.0 -1 ------- null}
r -t 1.05502580385852 -s 1 -d 0 -p AM_Data -e 40 -c 0 -i 16 -a 0 -x {5.0.0.0 3.0.2.0 -1 ------- null}
r -t 1.05502631832798 -s 1 -d 0 -p AM_Data -e 40 -c 0 -i 16 -a 0 -x {5.0.0.0 3.0.2.0 -1 ------- null}
r -t 1.05502683279743 -s 1 -d 0 -p AM_Data -e 40 -c 0 -i 16 -a 0 -x {5.0.0.0 3.0.2.0 -1 ------- null}
r -t 1.05502734726688 -s 1 -d 0 -p AM_Data -e 40 -c 0 -i 16 -a 0 -x {5.0.0.0 3.0.2.0 -1 ------- null}
+ -t 1.05507374598071 -s 0 -d 22 -p cbr -e 666 -c 0 -i 13 -a 0 -x {5.0.0.0 3.0.2.0 0 ------- null}
- -t 1.05507374598071 -s 0 -d 22 -p cbr -e 666 -c 0 -i 13 -a 0 -x {5.0.0.0 3.0.2.0 0 ------- null}
h -t 1.05507374598071 -s 0 -d 22 -p cbr -e 666 -c 0 -i 13 -a 0 -x {5.0.0.0 3.0.2.0 -1 ------- null}
r -t 1.05548231189711 -s 0 -d 22 -p cbr -e 666 -c 0 -i 13 -a 0 -x {5.0.0.0 3.0.2.0 0 ------- null}
+ -t 1.05548231189711 -s 22 -d 23 -p cbr -e 666 -c 0 -i 13 -a 0 -x {5.0.0.0 3.0.2.0 0 ------- null}
- -t 1.05548231189711 -s 22 -d 23 -p cbr -e 666 -c 0 -i 13 -a 0 -x {5.0.0.0 3.0.2.0 0 ------- null}
h -t 1.05548231189711 -s 22 -d 23 -p cbr -e 666 -c 0 -i 13 -a 0 -x {5.0.0.0 3.0.2.0 -1 ------- null}
+ -t 1.056095000 -s 47 -d -1 -p ARP -e 88 -c 2 -a 0 -i 0 -k MAC 
- -t 1.056095000 -s 47 -d -1 -p ARP -e 88 -c 2 -a 0 -i 0 -k MAC
h -t 1.056095000 -s 47 -d -1 -p ARP -e 88 -c 2 -a 0 -i 0 -k MAC
d -t 1.056333607 -s 65 -d -1 -p ARP -e 88 -c 2 -a 0 -i 0 -k MAC
d -t 1.056333613 -s 60 -d -1 -p ARP -e 88 -c 2 -a 0 -i 0 -k MAC
d -t 1.056333683 -s 51 -d -1 -p ARP -e 88 -c 2 -a 0 -i 0 -k MAC
d -t 1.056333740 -s 64 -d -1 -p ARP -e 88 -c 2 -a 0 -i 0 -k MAC
d -t 1.056333749 -s 61 -d -1 -p ARP -e 88 -c 2 -a 0 -i 0 -k MAC
d -t 1.056333760 -s 56 -d -1 -p ARP -e 88 -c 2 -a 0 -i 0 -k MAC
d -t 1.056333763 -s 48 -d -1 -p ARP -e 88 -c 2 -a 0 -i 0 -k MAC
d -t 1.056333771 -s 54 -d -1 -p ARP -e 88 -c 2 -a 0 -i 0 -k MAC
d -t 1.056333776 -s 57 -d -1 -p ARP -e 88 -c 2 -a 0 -i 0 -k MAC
d -t 1.056333852 -s 52 -d -1 -p ARP -e 88 -c 2 -a 0 -i 0 -k MAC
d -t 1.056333873 -s 46 -d -1 -p ARP -e 88 -c 2 -a 0 -i 0 -k MAC
d -t 1.056333892 -s 50 -d -1 -p ARP -e 88 -c 2 -a 0 -i 0 -k MAC
d -t 1.056333921 -s 58 -d -1 -p ARP -e 88 -c 2 -a 0 -i 0 -k MAC
d -t 1.056333923 -s 55 -d -1 -p ARP -e 88 -c 2 -a 0 -i 0 -k MAC
d -t 1.056333932 -s 59 -d -1 -p ARP -e 88 -c 2 -a 0 -i 0 -k MAC
d -t 1.056333940 -s 49 -d -1 -p ARP -e 88 -c 2 -a 0 -i 0 -k MAC
d -t 1.056333948 -s 63 -d -1 -p ARP -e 88 -c 2 -a 0 -i 0 -k MAC
d -t 1.056334037 -s 62 -d -1 -p ARP -e 88 -c 2 -a 0 -i 0 -k MAC
d -t 1.056334053 -s 53 -d -1 -p ARP -e 88 -c 2 -a 0 -i 0 -k MAC
+ -t 1.060015 -s 1 -d 0 -p AM_Data -e 40 -c 0 -i 16 -a 0 -x {5.0.0.0 3.0.2.0 -1 ------- null}
- -t 1.060015 -s 1 -d 0 -p AM_Data -e 40 -c 0 -i 16 -a 0 -x {5.0.0.0 3.0.2.0 -1 ------- null}
h -t 1.060015 -s 1 -d 0 -p AM_Data -e 40 -c 0 -i 16 -a 0 -x {5.0.0.0 3.0.2.0 -1 ------- null}
+ -t 1.060015 -s 1 -d 0 -p AM_Data -e 40 -c 0 -i 16 -a 0 -x {5.0.0.0 3.0.2.0 -1 ------- null}
+ -t 1.060015 -s 1 -d 0 -p AM_Data -e 40 -c 0 -i 16 -a 0 -x {5.0.0.0 3.0.2.0 -1 ------- null}
+ -t 1.060015 -s 1 -d 0 -p AM_Data -e 40 -c 0 -i 16 -a 0 -x {5.0.0.0 3.0.2.0 -1 ------- null}
+ -t 1.060015 -s 1 -d 0 -p AM_Data -e 40 -c 0 -i 16 -a 0 -x {5.0.0.0 3.0.2.0 -1 ------- null}
+ -t 1.060015 -s 1 -d 0 -p AM_Data -e 40 -c 0 -i 16 -a 0 -x {5.0.0.0 3.0.2.0 -1 ------- null}
+ -t 1.060015 -s 1 -d 0 -p AM_Data -e 40 -c 0 -i 16 -a 0 -x {5.0.0.0 3.0.2.0 -1 ------- null}
+ -t 1.060015 -s 1 -d 0 -p AM_Data -e 40 -c 0 -i 16 -a 0 -x {5.0.0.0 3.0.2.0 -1 ------- null}
+ -t 1.060015 -s 1 -d 0 -p AM_Data -e 40 -c 0 -i 16 -a 0 -x {5.0.0.0 3.0.2.0 -1 ------- null}
+ -t 1.060015 -s 1 -d 0 -p AM_Data -e 40 -c 0 -i 16 -a 0 -x {5.0.0.0 3.0.2.0 -1 ------- null}
+ -t 1.060015 -s 1 -d 0 -p AM_Data -e 40 -c 0 -i 19 -a 0 -x {5.0.0.0 3.0.2.0 -1 ------- null}
+ -t 1.060015 -s 1 -d 0 -p AM_Data -e 40 -c 0 -i 19 -a 0 -x {5.0.0.0 3.0.2.0 -1 ------- null}
+ -t 1.060015 -s 1 -d 0 -p AM_Data -e 40 -c 0 -i 19 -a 0 -x {5.0.0.0 3.0.2.0 -1 ------- null}
+ -t 1.060015 -s 1 -d 0 -p AM_Data -e 40 -c 0 -i 19 -a 0 -x {5.0.0.0 3.0.2.0 -1 ------- null}
+ -t 1.060015 -s 1 -d 0 -p AM_Data -e 40 -c 0 -i 19 -a 0 -x {5.0.0.0 3.0.2.0 -1 ------- null}
+ -t 1.060015 -s 1 -d 0 -p AM_Data -e 40 -c 0 -i 19 -a 0 -x {5.0.0.0 3.0.2.0 -1 ------- null}
+ -t 1.060015 -s 1 -d 0 -p AM_Data -e 40 -c 0 -i 19 -a 0 -x {5.0.0.0 3.0.2.0 -1 ------- null}
+ -t 1.060015 -s 1 -d 0 -p AM_Data -e 40 -c 0 -i 19 -a 0 -x {5.0.0.0 3.0.2.0 -1 ------- null}
+ -t 1.060015 -s 1 -d 0 -p AM_Data -e 40 -c 0 -i 19 -a 0 -x {5.0.0.0 3.0.2.0 -1 ------- null}
+ -t 1.060015 -s 1 -d 0 -p AM_Data -e 40 -c 0 -i 19 -a 0 -x {5.0.0.0 3.0.2.0 -1 ------- null}
+ -t 1.060015 -s 1 -d 0 -p AM_Data -e 40 -c 0 -i 19 -a 0 -x {5.0.0.0 3.0.2.0 -1 ------- null}
+ -t 1.060015 -s 1 -d 0 -p AM_Data -e 40 -c 0 -i 19 -a 0 -x {5.0.0.0 3.0.2.0 -1 ------- null}
+ -t 1.060015 -s 1 -d 0 -p AM_Data -e 40 -c 0 -i 19 -a 0 -x {5.0.0.0 3.0.2.0 -1 ------- null}
+ -t 1.060015 -s 1 -d 0 -p AM_Data -e 40 -c 0 -i 19 -a 0 -x {5.0.0.0 3.0.2.0 -1 ------- null}
- -t 1.06001551446945 -s 1 -d 0 -p AM_Data -e 40 -c 0 -i 16 -a 0 -x {5.0.0.0 3.0.2.0 -1 ------- null}
h -t 1.06001551446945 -s 1 -d 0 -p AM_Data -e 40 -c 0 -i 16 -a 0 -x {5.0.0.0 3.0.2.0 -1 ------- null}
- -t 1.06001602893891 -s 1 -d 0 -p AM_Data -e 40 -c 0 -i 16 -a 0 -x {5.0.0.0 3.0.2.0 -1 ------- null}
h -t 1.06001602893891 -s 1 -d 0 -p AM_Data -e 40 -c 0 -i 16 -a 0 -x {5.0.0.0 3.0.2.0 -1 ------- null}
- -t 1.06001654340836 -s 1 -d 0 -p AM_Data -e 40 -c 0 -i 16 -a 0 -x {5.0.0.0 3.0.2.0 -1 ------- null}
h -t 1.06001654340836 -s 1 -d 0 -p AM_Data -e 40 -c 0 -i 16 -a 0 -x {5.0.0.0 3.0.2.0 -1 ------- null}
- -t 1.06001705787781 -s 1 -d 0 -p AM_Data -e 40 -c 0 -i 16 -a 0 -x {5.0.0.0 3.0.2.0 -1 ------- null}
h -t 1.06001705787781 -s 1 -d 0 -p AM_Data -e 40 -c 0 -i 16 -a 0 -x {5.0.0.0 3.0.2.0 -1 ------- null}
- -t 1.06001757234727 -s 1 -d 0 -p AM_Data -e 40 -c 0 -i 16 -a 0 -x {5.0.0.0 3.0.2.0 -1 ------- null}
h -t 1.06001757234727 -s 1 -d 0 -p AM_Data -e 40 -c 0 -i 16 -a 0 -x {5.0.0.0 3.0.2.0 -1 ------- null}
- -t 1.06001808681672 -s 1 -d 0 -p AM_Data -e 40 -c 0 -i 16 -a 0 -x {5.0.0.0 3.0.2.0 -1 ------- null}
h -t 1.06001808681672 -s 1 -d 0 -p AM_Data -e 40 -c 0 -i 16 -a 0 -x {5.0.0.0 3.0.2.0 -1 ------- null}
- -t 1.06001860128617 -s 1 -d 0 -p AM_Data -e 40 -c 0 -i 16 -a 0 -x {5.0.0.0 3.0.2.0 -1 ------- null}
h -t 1.06001860128617 -s 1 -d 0 -p AM_Data -e 40 -c 0 -i 16 -a 0 -x {5.0.0.0 3.0.2.0 -1 ------- null}
- -t 1.06001911575563 -s 1 -d 0 -p AM_Data -e 40 -c 0 -i 16 -a 0 -x {5.0.0.0 3.0.2.0 -1 ------- null}
h -t 1.06001911575563 -s 1 -d 0 -p AM_Data -e 40 -c 0 -i 16 -a 0 -x {5.0.0.0 3.0.2.0 -1 ------- null}
- -t 1.06001963022508 -s 1 -d 0 -p AM_Data -e 40 -c 0 -i 16 -a 0 -x {5.0.0.0 3.0.2.0 -1 ------- null}
h -t 1.06001963022508 -s 1 -d 0 -p AM_Data -e 40 -c 0 -i 16 -a 0 -x {5.0.0.0 3.0.2.0 -1 ------- null}
- -t 1.06002014469454 -s 1 -d 0 -p AM_Data -e 40 -c 0 -i 19 -a 0 -x {5.0.0.0 3.0.2.0 -1 ------- null}
h -t 1.06002014469454 -s 1 -d 0 -p AM_Data -e 40 -c 0 -i 19 -a 0 -x {5.0.0.0 3.0.2.0 -1 ------- null}
- -t 1.06002065916399 -s 1 -d 0 -p AM_Data -e 40 -c 0 -i 19 -a 0 -x {5.0.0.0 3.0.2.0 -1 ------- null}
h -t 1.06002065916399 -s 1 -d 0 -p AM_Data -e 40 -c 0 -i 19 -a 0 -x {5.0.0.0 3.0.2.0 -1 ------- null}
- -t 1.06002117363344 -s 1 -d 0 -p AM_Data -e 40 -c 0 -i 19 -a 0 -x {5.0.0.0 3.0.2.0 -1 ------- null}
h -t 1.06002117363344 -s 1 -d 0 -p AM_Data -e 40 -c 0 -i 19 -a 0 -x {5.0.0.0 3.0.2.0 -1 ------- null}
- -t 1.0600216881029 -s 1 -d 0 -p AM_Data -e 40 -c 0 -i 19 -a 0 -x {5.0.0.0 3.0.2.0 -1 ------- null}
h -t 1.0600216881029 -s 1 -d 0 -p AM_Data -e 40 -c 0 -i 19 -a 0 -x {5.0.0.0 3.0.2.0 -1 ------- null}
- -t 1.06002220257235 -s 1 -d 0 -p AM_Data -e 40 -c 0 -i 19 -a 0 -x {5.0.0.0 3.0.2.0 -1 ------- null}
h -t 1.06002220257235 -s 1 -d 0 -p AM_Data -e 40 -c 0 -i 19 -a 0 -x {5.0.0.0 3.0.2.0 -1 ------- null}
- -t 1.0600227170418 -s 1 -d 0 -p AM_Data -e 40 -c 0 -i 19 -a 0 -x {5.0.0.0 3.0.2.0 -1 ------- null}
h -t 1.0600227170418 -s 1 -d 0 -p AM_Data -e 40 -c 0 -i 19 -a 0 -x {5.0.0.0 3.0.2.0 -1 ------- null}
- -t 1.06002323151126 -s 1 -d 0 -p AM_Data -e 40 -c 0 -i 19 -a 0 -x {5.0.0.0 3.0.2.0 -1 ------- null}
h -t 1.06002323151126 -s 1 -d 0 -p AM_Data -e 40 -c 0 -i 19 -a 0 -x {5.0.0.0 3.0.2.0 -1 ------- null}
- -t 1.06002374598071 -s 1 -d 0 -p AM_Data -e 40 -c 0 -i 19 -a 0 -x {5.0.0.0 3.0.2.0 -1 ------- null}
h -t 1.06002374598071 -s 1 -d 0 -p AM_Data -e 40 -c 0 -i 19 -a 0 -x {5.0.0.0 3.0.2.0 -1 ------- null}
- -t 1.06002426045016 -s 1 -d 0 -p AM_Data -e 40 -c 0 -i 19 -a 0 -x {5.0.0.0 3.0.2.0 -1 ------- null}
h -t 1.06002426045016 -s 1 -d 0 -p AM_Data -e 40 -c 0 -i 19 -a 0 -x {5.0.0.0 3.0.2.0 -1 ------- null}
- -t 1.06002477491962 -s 1 -d 0 -p AM_Data -e 40 -c 0 -i 19 -a 0 -x {5.0.0.0 3.0.2.0 -1 ------- null}
h -t 1.06002477491962 -s 1 -d 0 -p AM_Data -e 40 -c 0 -i 19 -a 0 -x {5.0.0.0 3.0.2.0 -1 ------- null}
- -t 1.06002528938907 -s 1 -d 0 -p AM_Data -e 40 -c 0 -i 19 -a 0 -x {5.0.0.0 3.0.2.0 -1 ------- null}