+ 0.5 1 4 sctp 56 -------I 0 1.0 4.0 1 -1 4 65535 65535
- 0.5 1 4 sctp 56 -------I 0 1.0 4.0 1 -1 4 65535 65535
r 0.700896 1 4 sctp 56 -------I 0 1.0 4.0 1 -1 4 65535 65535
+ 0.700896 4 1 sctp 56 -------I 0 4.0 1.0 1 -1 5 65535 65535
- 0.700896 4 1 sctp 56 -------I 0 4.0 1.0 1 -1 5 65535 65535
r 0.901792 4 1 sctp 56 -------I 0 4.0 1.0 1 -1 5 65535 65535
+ 0.901792 1 4 sctp 36 -------I 0 1.0 4.0 1 -1 6 65535 65535
- 0.901792 1 4 sctp 36 -------I 0 1.0 4.0 1 -1 6 65535 65535
r 1.102368 1 4 sctp 36 -------I 0 1.0 4.0 1 -1 6 65535 65535
+ 1.102368 4 1 sctp 36 -------I 0 4.0 1.0 1 -1 7 65535 65535
- 1.102368 4 1 sctp 36 -------I 0 4.0 1.0 1 -1 7 65535 65535
r 1.302944 4 1 sctp 36 -------I 0 4.0 1.0 1 -1 7 65535 65535
+ 1.302944 1 4 sctp 1500 -------D 0 1.0 4.0 1 1 8 0 0
- 1.302944 1 4 sctp 1500 -------D 0 1.0 4.0 1 1 8 0 0
+ 1.302944 1 4 sctp 1500 -------D 0 1.0 4.0 1 2 9 0 1
- 1.326944 1 4 sctp 1500 -------D 0 1.0 4.0 1 2 9 0 1
r 1.526944 1 4 sctp 1500 -------D 0 1.0 4.0 1 1 8 0 0
r 1.550944 1 4 sctp 1500 -------D 0 1.0 4.0 1 2 9 0 1
+ 1.550944 4 1 sctp 48 -------S 0 4.0 1.0 1 2 10 65535 65535
- 1.550944 4 1 sctp 48 -------S 0 4.0 1.0 1 2 10 65535 65535
r 1.751712 4 1 sctp 48 -------S 0 4.0 1.0 1 2 10 65535 65535
+ 1.751712 1 4 sctp 1500 -------D 0 1.0 4.0 1 3 11 0 2
- 1.751712 1 4 sctp 1500 -------D 0 1.0 4.0 1 3 11 0 2
+ 1.751712 1 4 sctp 1500 -------D 0 1.0 4.0 1 4 12 0 3
+ 1.751712 1 4 sctp 1500 -------D 0 1.0 4.0 1 5 13 0 4
- 1.775712 1 4 sctp 1500 -------D 0 1.0 4.0 1 4 12 0 3
- 1.799712 1 4 sctp 1500 -------D 0 1.0 4.0 1 5 13 0 4
r 1.975712 1 4 sctp 1500 -------D 0 1.0 4.0 1 3 11 0 2
r 1.999712 1 4 sctp 1500 -------D 0 1.0 4.0 1 4 12 0 3
+ 1.999712 4 1 sctp 48 -------S 0 4.0 1.0 1 4 14 65535 65535
- 1.999712 4 1 sctp 48 -------S 0 4.0 1.0 1 4 14 65535 65535
r 2.023712 1 4 sctp 1500 -------D 0 1.0 4.0 1 5 13 0 4
r 2.20048 4 1 sctp 48 -------S 0 4.0 1.0 1 4 14 65535 65535
+ 2.20048 1 4 sctp 1500 -------D 0 1.0 4.0 1 6 15 0 5
- 2.20048 1 4 sctp 1500 -------D 0 1.0 4.0 1 6 15 0 5
+ 2.20048 1 4 sctp 1500 -------D 0 1.0 4.0 1 7 16 0 6
+ 2.20048 1 4 sctp 1500 -------D 0 1.0 4.0 1 8 17 0 7
+ 2.223712 4 1 sctp 48 -------S 0 4.0 1.0 1 5 18 65535 65535
- 2.223712 4 1 sctp 48 -------S 0 4.0 1.0 1 5 18 65535 65535
- 2.22448 1 4 sctp 1500 -------D 0 1.0 4.0 1 7 16 0 6
- 2.24848 1 4 sctp 1500 -------D 0 1.0 4.0 1 8 17 0 7
r 2.42448 1 4 sctp 1500 -------D 0 1.0 4.0 1 6 15 0 5
r 2.42448 4 1 sctp 48 -------S 0 4.0 1.0 1 5 18 65535 65535
+ 2.42448 1 4 sctp 1500 -------D 0 1.0 4.0 1 9 19 0 8
- 2.42448 1 4 sctp 1500 -------D 0 1.0 4.0 1 9 19 0 8
+ 2.42448 1 4 sctp 1500 -------D 0 1.0 4.0 1 10 20 0 9
r 2.44848 1 4 sctp 1500 -------D 0 1.0 4.0 1 7 16 0 6
+ 2.44848 4 1 sctp 48 -------S 0 4.0 1.0 1 7 21 65535 65535
- 2.44848 4 1 sctp 48 -------S 0 4.0 1.0 1 7 21 65535 65535
- 2.44848 1 4 sctp 1500 -------D 0 1.0 4.0 1 10 20 0 9
r 2.47248 1 4 sctp 1500 -------D 0 1.0 4.0 1 8 17 0 7
r 2.64848 1 4 sctp 1500 -------D 0 1.0 4.0 1 9 19 0 8
+ 2.64848 4 1 sctp 48 -------S 0 4.0 1.0 1 9 22 65535 65535
- 2.64848 4 1 sctp 48 -------S 0 4.0 1.0 1 9 22 65535 65535
r 2.649248 4 1 sctp 48 -------S 0 4.0 1.0 1 7 21 65535 65535
+ 2.649248 1 4 sctp 1500 -------D 0 1.0 4.0 1 11 23 0 10
- 2.649248 1 4 sctp 1500 -------D 0 1.0 4.0 1 11 23 0 10
+ 2.649248 1 4 sctp 1500 -------D 0 1.0 4.0 1 12 24 0 11
+ 2.649248 1 4 sctp 1500 -------D 0 1.0 4.0 1 13 25 0 12
r 2.67248 1 4 sctp 1500 -------D 0 1.0 4.0 1 10 20 0 9
- 2.673248 1 4 sctp 1500 -------D 0 1.0 4.0 1 12 24 0 11
- 2.697248 1 4 sctp 1500 -------D 0 1.0 4.0 1 13 25 0 12
r 2.849248 4 1 sctp 48 -------S 0 4.0 1.0 1 9 22 65535 65535
d 2.849248 1 4 sctp 1500 -------D 0 1.0 4.0 1 14 26 0 13
d 2.849248 1 4 sctp 1500 -------D 0 1.0 4.0 1 15 27 0 14
d 2.849248 1 4 sctp 1500 -------D 0 1.0 4.0 1 16 28 0 15
+ 2.87248 4 1 sctp 48 -------S 0 4.0 1.0 1 10 29 65535 65535
- 2.87248 4 1 sctp 48 -------S 0 4.0 1.0 1 10 29 65535 65535
r 2.873248 1 4 sctp 1500 -------D 0 1.0 4.0 1 11 23 0 10
r 2.897248 1 4 sctp 1500 -------D 0 1.0 4.0 1 12 24 0 11
+ 2.897248 4 1 sctp 48 -------S 0 4.0 1.0 1 12 30 65535 65535
- 2.897248 4 1 sctp 48 -------S 0 4.0 1.0 1 12 30 65535 65535
r 2.921248 1 4 sctp 1500 -------D 0 1.0 4.0 1 13 25 0 12
r 3.073248 4 1 sctp 48 -------S 0 4.0 1.0 1 10 29 65535 65535
d 3.073248 1 4 sctp 1500 -------D 0 1.0 4.0 1 17 31 0 16
d 3.073248 1 4 sctp 1500 -------D 0 1.0 4.0 1 18 32 0 17
r 3.098016 4 1 sctp 48 -------S 0 4.0 1.0 1 12 30 65535 65535
d 3.098016 1 4 sctp 1500 -------D 0 1.0 4.0 1 19 33 0 18
d 3.098016 1 4 sctp 1500 -------D 0 1.0 4.0 1 20 34 0 19
d 3.098016 1 4 sctp 1500 -------D 0 1.0 4.0 1 21 35 0 20
+ 3.121248 4 1 sctp 48 -------S 0 4.0 1.0 1 13 36 65535 65535
- 3.121248 4 1 sctp 48 -------S 0 4.0 1.0 1 13 36 65535 65535
r 3.322016 4 1 sctp 48 -------S 0 4.0 1.0 1 13 36 65535 65535
d 3.322016 1 4 sctp 1500 -------D 0 1.0 4.0 1 22 37 0 21
d 3.322016 1 4 sctp 1500 -------D 0 1.0 4.0 1 23 38 0 22
+ 4.322016 2 5 sctp 1500 -------D 0 2.0 5.0 1 14 39 0 13
- 4.322016 2 5 sctp 1500 -------D 0 2.0 5.0 1 14 39 0 13
r 4.546016 2 5 sctp 1500 -------D 0 2.0 5.0 1 14 39 0 13
+ 4.746016 5 2 sctp 48 -------S 0 5.0 2.0 1 14 40 65535 65535
- 4.746016 5 2 sctp 48 -------S 0 5.0 2.0 1 14 40 65535 65535
r 4.946784 5 2 sctp 48 -------S 0 5.0 2.0 1 14 40 65535 65535
+ 4.946784 2 5 sctp 1500 -------D 0 2.0 5.0 1 15 41 0 14
- 4.946784 2 5 sctp 1500 -------D 0 2.0 5.0 1 15 41 0 14
+ 4.946784 2 5 sctp 1500 -------D 0 2.0 5.0 1 16 42 0 15
- 4.970784 2 5 sctp 1500 -------D 0 2.0 5.0 1 16 42 0 15
r 5.170784 2 5 sctp 1500 -------D 0 2.0 5.0 1 15 41 0 14
r 5.194784 2 5 sctp 1500 -------D 0 2.0 5.0 1 16 42 0 15
+ 5.194784 5 2 sctp 48 -------S 0 5.0 2.0 1 16 43 65535 65535
- 5.194784 5 2 sctp 48 -------S 0 5.0 2.0 1 16 43 65535 65535
r 5.395552 5 2 sctp 48 -------S 0 5.0 2.0 1 16 43 65535 65535
+ 5.395552 2 5 sctp 1500 -------D 0 2.0 5.0 1 17 44 0 16
- 5.395552 2 5 sctp 1500 -------D 0 2.0 5.0 1 17 44 0 16
+ 5.395552 2 5 sctp 1500 -------D 0 2.0 5.0 1 18 45 0 17
+ 5.395552 2 5 sctp 1500 -------D 0 2.0 5.0 1 19 46 0 18
- 5.419552 2 5 sctp 1500 -------D 0 2.0 5.0 1 18 45 0 17
- 5.443552 2 5 sctp 1500 -------D 0 2.0 5.0 1 19 46 0 18
r 5.619552 2 5 sctp 1500 -------D 0 2.0 5.0 1 17 44 0 16
r 5.643552 2 5 sctp 1500 -------D 0 2.0 5.0 1 18 45 0 17
+ 5.643552 5 2 sctp 48 -------S 0 5.0 2.0 1 18 47 65535 65535
- 5.643552 5 2 sctp 48 -------S 0 5.0 2.0 1 18 47 65535 65535
r 5.667552 2 5 sctp 1500 -------D 0 2.0 5.0 1 19 46 0 18
r 5.84432 5 2 sctp 48 -------S 0 5.0 2.0 1 18 47 65535 65535
+ 5.84432 2 5 sctp 1500 -------D 0 2.0 5.0 1 20 48 0 19
- 5.84432 2 5 sctp 1500 -------D 0 2.0 5.0 1 20 48 0 19
+ 5.84432 2 5 sctp 1500 -------D 0 2.0 5.0 1 21 49 0 20
+ 5.84432 2 5 sctp 1500 -------D 0 2.0 5.0 1 22 50 0 21
+ 5.867552 5 2 sctp 48 -------S 0 5.0 2.0 1 19 51 65535 65535
- 5.867552 5 2 sctp 48 -------S 0 5.0 2.0 1 19 51 65535 65535
- 5.86832 2 5 sctp 1500 -------D 0 2.0 5.0 1 21 49 0 20
- 5.89232 2 5 sctp 1500 -------D 0 2.0 5.0 1 22 50 0 21
r 6.06832 2 5 sctp 1500 -------D 0 2.0 5.0 1 20 48 0 19
r 6.06832 5 2 sctp 48 -------S 0 5.0 2.0 1 19 51 65535 65535
+ 6.06832 2 5 sctp 1500 -------D 0 2.0 5.0 1 23 52 0 22
- 6.06832 2 5 sctp 1500 -------D 0 2.0 5.0 1 23 52 0 22
d 6.06832 1 4 sctp 1500 -------D 0 1.0 4.0 1 24 53 0 23
r 6.09232 2 5 sctp 1500 -------D 0 2.0 5.0 1 21 49 0 20
+ 6.09232 5 2 sctp 48 -------S 0 5.0 2.0 1 21 54 65535 65535
- 6.09232 5 2 sctp 48 -------S 0 5.0 2.0 1 21 54 65535 65535
r 6.11632 2 5 sctp 1500 -------D 0 2.0 5.0 1 22 50 0 21
r 6.29232 2 5 sctp 1500 -------D 0 2.0 5.0 1 23 52 0 22
+ 6.29232 5 2 sctp 48 -------S 0 5.0 2.0 1 23 55 65535 65535
- 6.29232 5 2 sctp 48 -------S 0 5.0 2.0 1 23 55 65535 65535
r 6.293088 5 2 sctp 48 -------S 0 5.0 2.0 1 21 54 65535 65535
r 6.493088 5 2 sctp 48 -------S 0 5.0 2.0 1 23 55 65535 65535
+ 6.946784 2 5 sctp 1500 -------D 0 2.0 5.0 1 24 56 0 23
- 6.946784 2 5 sctp 1500 -------D 0 2.0 5.0 1 24 56 0 23
r 7.170784 2 5 sctp 1500 -------D 0 2.0 5.0 1 24 56 0 23
+ 7.370784 5 2 sctp 48 -------S 0 5.0 2.0 1 24 57 65535 65535
- 7.370784 5 2 sctp 48 -------S 0 5.0 2.0 1 24 57 65535 65535
r 7.571552 5 2 sctp 48 -------S 0 5.0 2.0 1 24 57 65535 65535
d 7.571552 1 4 sctp 1500 -------D 0 1.0 4.0 1 25 58 0 24
+ 11.571552 2 5 sctp 1500 -------D 0 2.0 5.0 1 25 59 0 24
- 11.571552 2 5 sctp 1500 -------D 0 2.0 5.0 1 25 59 0 24
r 11.795552 2 5 sctp 1500 -------D 0 2.0 5.0 1 25 59 0 24
+ 11.995552 5 2 sctp 48 -------S 0 5.0 2.0 1 25 60 65535 65535
- 11.995552 5 2 sctp 48 -------S 0 5.0 2.0 1 25 60 65535 65535
r 12.19632 5 2 sctp 48 -------S 0 5.0 2.0 1 25 60 65535 65535
d 12.19632 1 4 sctp 1500 -------D 0 1.0 4.0 1 26 61 0 25
+ 20.19632 2 5 sctp 1500 -------D 0 2.0 5.0 1 26 62 0 25
- 20.19632 2 5 sctp 1500 -------D 0 2.0 5.0 1 26 62 0 25
r 20.42032 2 5 sctp 1500 -------D 0 2.0 5.0 1 26 62 0 25
+ 20.62032 5 2 sctp 48 -------S 0 5.0 2.0 1 26 63 65535 65535
- 20.62032 5 2 sctp 48 -------S 0 5.0 2.0 1 26 63 65535 65535
r 20.821088 5 2 sctp 48 -------S 0 5.0 2.0 1 26 63 65535 65535
d 20.821088 1 4 sctp 1500 -------D 0 1.0 4.0 1 27 64 0 26
+ 32.603387 4 1 sctp 56 -------H 0 4.0 1.0 1 -1 65 65535 65535
- 32.603387 4 1 sctp 56 -------H 0 4.0 1.0 1 -1 65 65535 65535
r 32.804283 4 1 sctp 56 -------H 0 4.0 1.0 1 -1 65 65535 65535
+ 32.804283 1 4 sctp 56 -------B 0 1.0 4.0 1 -1 66 65535 65535
- 32.804283 1 4 sctp 56 -------B 0 1.0 4.0 1 -1 66 65535 65535
r 33.005179 1 4 sctp 56 -------B 0 1.0 4.0 1 -1 66 65535 65535
+ 34.470586 2 5 sctp 56 -------H 0 2.0 5.0 1 -1 67 65535 65535
- 34.470586 2 5 sctp 56 -------H 0 2.0 5.0 1 -1 67 65535 65535
r 34.671482 2 5 sctp 56 -------H 0 2.0 5.0 1 -1 67 65535 65535
+ 34.671482 5 2 sctp 56 -------B 0 5.0 2.0 1 -1 68 65535 65535
- 34.671482 5 2 sctp 56 -------B 0 5.0 2.0 1 -1 68 65535 65535
r 34.872378 5 2 sctp 56 -------B 0 5.0 2.0 1 -1 68 65535 65535
+ 36.821088 2 5 sctp 1500 -------D 0 2.0 5.0 1 27 69 0 26
- 36.821088 2 5 sctp 1500 -------D 0 2.0 5.0 1 27 69 0 26
r 37.045088 2 5 sctp 1500 -------D 0 2.0 5.0 1 27 69 0 26
+ 37.245088 5 2 sctp 48 -------S 0 5.0 2.0 1 27 70 65535 65535
- 37.245088 5 2 sctp 48 -------S 0 5.0 2.0 1 27 70 65535 65535
r 37.445856 5 2 sctp 48 -------S 0 5.0 2.0 1 27 70 65535 65535
d 37.445856 1 4 sctp 1500 -------D 0 1.0 4.0 1 28 71 0 27
+ 64.146001 5 2 sctp 56 -------H 0 5.0 2.0 1 -1 72 65535 65535
- 64.146001 5 2 sctp 56 -------H 0 5.0 2.0 1 -1 72 65535 65535
r 64.346897 5 2 sctp 56 -------H 0 5.0 2.0 1 -1 72 65535 65535
+ 64.346897 2 5 sctp 56 -------B 0 2.0 5.0 1 -1 73 65535 65535
- 64.346897 2 5 sctp 56 -------B 0 2.0 5.0 1 -1 73 65535 65535
r 64.547793 2 5 sctp 56 -------B 0 2.0 5.0 1 -1 73 65535 65535
+ 66.234954 2 5 sctp 56 -------H 0 2.0 5.0 1 -1 74 65535 65535
- 66.234954 2 5 sctp 56 -------H 0 2.0 5.0 1 -1 74 65535 65535
r 66.43585 2 5 sctp 56 -------H 0 2.0 5.0 1 -1 74 65535 65535
+ 66.43585 5 2 sctp 56 -------B 0 5.0 2.0 1 -1 75 65535 65535
- 66.43585 5 2 sctp 56 -------B 0 5.0 2.0 1 -1 75 65535 65535
r 66.636746 5 2 sctp 56 -------B 0 5.0 2.0 1 -1 75 65535 65535
+ 69.445856 2 5 sctp 1500 -------D 0 2.0 5.0 1 28 76 0 27
- 69.445856 2 5 sctp 1500 -------D 0 2.0 5.0 1 28 76 0 27
d 69.445856 1 4 sctp 56 -------H 0 1.0 4.0 1 -1 77 65535 65535
r 69.669856 2 5 sctp 1500 -------D 0 2.0 5.0 1 28 76 0 27
+ 69.869856 5 2 sctp 48 -------S 0 5.0 2.0 1 28 78 65535 65535
- 69.869856 5 2 sctp 48 -------S 0 5.0 2.0 1 28 78 65535 65535
r 70.070624 5 2 sctp 48 -------S 0 5.0 2.0 1 28 78 65535 65535
+ 70.070624 2 5 sctp 1500 -------D 0 2.0 5.0 1 29 79 0 28
- 70.070624 2 5 sctp 1500 -------D 0 2.0 5.0 1 29 79 0 28
+ 70.070624 2 5 sctp 1500 -------D 0 2.0 5.0 1 30 80 0 29
- 70.094624 2 5 sctp 1500 -------D 0 2.0 5.0 1 30 80 0 29
r 70.294624 2 5 sctp 1500 -------D 0 2.0 5.0 1 29 79 0 28
r 70.318624 2 5 sctp 1500 -------D 0 2.0 5.0 1 30 80 0 29
+ 70.318624 5 2 sctp 48 -------S 0 5.0 2.0 1 30 81 65535 65535
- 70.318624 5 2 sctp 48 -------S 0 5.0 2.0 1 30 81 65535 65535
r 70.519392 5 2 sctp 48 -------S 0 5.0 2.0 1 30 81 65535 65535
+ 70.519392 2 5 sctp 1500 -------D 0 2.0 5.0 1 31 82 0 30
- 70.519392 2 5 sctp 1500 -------D 0 2.0 5.0 1 31 82 0 30
+ 70.519392 2 5 sctp 1500 -------D 0 2.0 5.0 1 32 83 0 31
+ 70.519392 2 5 sctp 1500 -------D 0 2.0 5.0 1 33 84 0 32
- 70.543392 2 5 sctp 1500 -------D 0 2.0 5.0 1 32 83 0 31
- 70.567392 2 5 sctp 1500 -------D 0 2.0 5.0 1 33 84 0 32
r 70.743392 2 5 sctp 1500 -------D 0 2.0 5.0 1 31 82 0 30
r 70.767392 2 5 sctp 1500 -------D 0 2.0 5.0 1 32 83 0 31
+ 70.767392 5 2 sctp 48 -------S 0 5.0 2.0 1 32 85 65535 65535
- 70.767392 5 2 sctp 48 -------S 0 5.0 2.0 1 32 85 65535 65535
r 70.791392 2 5 sctp 1500 -------D 0 2.0 5.0 1 33 84 0 32
r 70.96816 5 2 sctp 48 -------S 0 5.0 2.0 1 32 85 65535 65535
+ 70.96816 2 5 sctp 1500 -------D 0 2.0 5.0 1 34 86 0 33
- 70.96816 2 5 sctp 1500 -------D 0 2.0 5.0 1 34 86 0 33
+ 70.96816 2 5 sctp 1500 -------D 0 2.0 5.0 1 35 87 0 34
+ 70.96816 2 5 sctp 1500 -------D 0 2.0 5.0 1 36 88 0 35
+ 70.991392 5 2 sctp 48 -------S 0 5.0 2.0 1 33 89 65535 65535
- 70.991392 5 2 sctp 48 -------S 0 5.0 2.0 1 33 89 65535 65535
- 70.99216 2 5 sctp 1500 -------D 0 2.0 5.0 1 35 87 0 34
- 71.01616 2 5 sctp 1500 -------D 0 2.0 5.0 1 36 88 0 35
r 71.19216 2 5 sctp 1500 -------D 0 2.0 5.0 1 34 86 0 33
r 71.19216 5 2 sctp 48 -------S 0 5.0 2.0 1 33 89 65535 65535
+ 71.19216 2 5 sctp 1500 -------D 0 2.0 5.0 1 37 90 0 36
- 71.19216 2 5 sctp 1500 -------D 0 2.0 5.0 1 37 90 0 36
+ 71.19216 2 5 sctp 1500 -------D 0 2.0 5.0 1 38 91 0 37
r 71.21616 2 5 sctp 1500 -------D 0 2.0 5.0 1 35 87 0 34
+ 71.21616 5 2 sctp 48 -------S 0 5.0 2.0 1 35 92 65535 65535
- 71.21616 5 2 sctp 48 -------S 0 5.0 2.0 1 35 92 65535 65535
- 71.21616 2 5 sctp 1500 -------D 0 2.0 5.0 1 38 91 0 37
r 71.24016 2 5 sctp 1500 -------D 0 2.0 5.0 1 36 88 0 35
r 71.41616 2 5 sctp 1500 -------D 0 2.0 5.0 1 37 90 0 36
+ 71.41616 5 2 sctp 48 -------S 0 5.0 2.0 1 37 93 65535 65535
- 71.41616 5 2 sctp 48 -------S 0 5.0 2.0 1 37 93 65535 65535
r 71.416928 5 2 sctp 48 -------S 0 5.0 2.0 1 35 92 65535 65535
+ 71.416928 2 5 sctp 1500 -------D 0 2.0 5.0 1 39 94 0 38
- 71.416928 2 5 sctp 1500 -------D 0 2.0 5.0 1 39 94 0 38
+ 71.416928 2 5 sctp 1500 -------D 0 2.0 5.0 1 40 95 0 39
+ 71.416928 2 5 sctp 1500 -------D 0 2.0 5.0 1 41 96 0 40
r 71.44016 2 5 sctp 1500 -------D 0 2.0 5.0 1 38 91 0 37
- 71.440928 2 5 sctp 1500 -------D 0 2.0 5.0 1 40 95 0 39
- 71.464928 2 5 sctp 1500 -------D 0 2.0 5.0 1 41 96 0 40
r 71.616928 5 2 sctp 48 -------S 0 5.0 2.0 1 37 93 65535 65535
+ 71.616928 2 5 sctp 1500 -------D 0 2.0 5.0 1 42 97 0 41
- 71.616928 2 5 sctp 1500 -------D 0 2.0 5.0 1 42 97 0 41
+ 71.616928 2 5 sctp 1500 -------D 0 2.0 5.0 1 43 98 0 42
+ 71.616928 2 5 sctp 1500 -------D 0 2.0 5.0 1 44 99 0 43
+ 71.64016 5 2 sctp 48 -------S 0 5.0 2.0 1 38 100 65535 65535
- 71.64016 5 2 sctp 48 -------S 0 5.0 2.0 1 38 100 65535 65535
r 71.640928 2 5 sctp 1500 -------D 0 2.0 5.0 1 39 94 0 38
- 71.640928 2 5 sctp 1500 -------D 0 2.0 5.0 1 43 98 0 42
r 71.664928 2 5 sctp 1500 -------D 0 2.0 5.0 1 40 95 0 39
+ 71.664928 5 2 sctp 48 -------S 0 5.0 2.0 1 40 101 65535 65535
- 71.664928 5 2 sctp 48 -------S 0 5.0 2.0 1 40 101 65535 65535
- 71.664928 2 5 sctp 1500 -------D 0 2.0 5.0 1 44 99 0 43
r 71.688928 2 5 sctp 1500 -------D 0 2.0 5.0 1 41 96 0 40
r 71.840928 2 5 sctp 1500 -------D 0 2.0 5.0 1 42 97 0 41
+ 71.840928 5 2 sctp 48 -------S 0 5.0 2.0 1 42 102 65535 65535
- 71.840928 5 2 sctp 48 -------S 0 5.0 2.0 1 42 102 65535 65535
r 71.840928 5 2 sctp 48 -------S 0 5.0 2.0 1 38 100 65535 65535
+ 71.840928 2 5 sctp 1500 -------D 0 2.0 5.0 1 45 103 0 44
- 71.840928 2 5 sctp 1500 -------D 0 2.0 5.0 1 45 103 0 44
+ 71.840928 2 5 sctp 1500 -------D 0 2.0 5.0 1 46 104 0 45
r 71.864928 2 5 sctp 1500 -------D 0 2.0 5.0 1 43 98 0 42
- 71.864928 2 5 sctp 1500 -------D 0 2.0 5.0 1 46 104 0 45
r 71.865696 5 2 sctp 48 -------S 0 5.0 2.0 1 40 101 65535 65535
+ 71.865696 2 5 sctp 1500 -------D 0 2.0 5.0 1 47 105 0 46
+ 71.865696 2 5 sctp 1500 -------D 0 2.0 5.0 1 48 106 0 47
+ 71.865696 2 5 sctp 1500 -------D 0 2.0 5.0 1 49 107 0 48
r 71.888928 2 5 sctp 1500 -------D 0 2.0 5.0 1 44 99 0 43
+ 71.888928 5 2 sctp 48 -------S 0 5.0 2.0 1 44 108 65535 65535
- 71.888928 5 2 sctp 48 -------S 0 5.0 2.0 1 44 108 65535 65535
- 71.888928 2 5 sctp 1500 -------D 0 2.0 5.0 1 47 105 0 46
- 71.912928 2 5 sctp 1500 -------D 0 2.0 5.0 1 48 106 0 47
- 71.936928 2 5 sctp 1500 -------D 0 2.0 5.0 1 49 107 0 48
r 72.041696 5 2 sctp 48 -------S 0 5.0 2.0 1 42 102 65535 65535
+ 72.041696 2 5 sctp 1500 -------D 0 2.0 5.0 1 50 109 0 49
- 72.041696 2 5 sctp 1500 -------D 0 2.0 5.0 1 50 109 0 49
+ 72.041696 2 5 sctp 1500 -------D 0 2.0 5.0 1 51 110 0 50
+ 72.041696 2 5 sctp 1500 -------D 0 2.0 5.0 1 52 111 0 51
r 72.064928 2 5 sctp 1500 -------D 0 2.0 5.0 1 45 103 0 44
- 72.065696 2 5 sctp 1500 -------D 0 2.0 5.0 1 51 110 0 50
r 72.088928 2 5 sctp 1500 -------D 0 2.0 5.0 1 46 104 0 45
+ 72.088928 5 2 sctp 48 -------S 0 5.0 2.0 1 46 112 65535 65535
- 72.088928 5 2 sctp 48 -------S 0 5.0 2.0 1 46 112 65535 65535
r 72.089696 5 2 sctp 48 -------S 0 5.0 2.0 1 44 108 65535 65535
+ 72.089696 2 5 sctp 1500 -------D 0 2.0 5.0 1 53 113 0 52
+ 72.089696 2 5 sctp 1500 -------D 0 2.0 5.0 1 54 114 0 53
+ 72.089696 2 5 sctp 1500 -------D 0 2.0 5.0 1 55 115 0 54
- 72.089696 2 5 sctp 1500 -------D 0 2.0 5.0 1 52 111 0 51
r 72.112928 2 5 sctp 1500 -------D 0 2.0 5.0 1 47 105 0 46
- 72.113696 2 5 sctp 1500 -------D 0 2.0 5.0 1 53 113 0 52
r 72.136928 2 5 sctp 1500 -------D 0 2.0 5.0 1 48 106 0 47
+ 72.136928 5 2 sctp 48 -------S 0 5.0 2.0 1 48 116 65535 65535
- 72.136928 5 2 sctp 48 -------S 0 5.0 2.0 1 48 116 65535 65535
- 72.137696 2 5 sctp 1500 -------D 0 2.0 5.0 1 54 114 0 53
r 72.160928 2 5 sctp 1500 -------D 0 2.0 5.0 1 49 107 0 48
- 72.161696 2 5 sctp 1500 -------D 0 2.0 5.0 1 55 115 0 54
r 72.265696 2 5 sctp 1500 -------D 0 2.0 5.0 1 50 109 0 49
+ 72.265696 5 2 sctp 48 -------S 0 5.0 2.0 1 50 117 65535 65535
- 72.265696 5 2 sctp 48 -------S 0 5.0 2.0 1 50 117 65535 65535
r 72.289696 2 5 sctp 1500 -------D 0 2.0 5.0 1 51 110 0 50
r 72.289696 5 2 sctp 48 -------S 0 5.0 2.0 1 46 112 65535 65535
+ 72.289696 2 5 sctp 1500 -------D 0 2.0 5.0 1 56 118 0 55
- 72.289696 2 5 sctp 1500 -------D 0 2.0 5.0 1 56 118 0 55
+ 72.289696 2 5 sctp 1500 -------D 0 2.0 5.0 1 57 119 0 56
+ 72.289696 2 5 sctp 1500 -------D 0 2.0 5.0 1 58 120 0 57
r 72.313696 2 5 sctp 1500 -------D 0 2.0 5.0 1 52 111 0 51
+ 72.313696 5 2 sctp 48 -------S 0 5.0 2.0 1 52 121 65535 65535
- 72.313696 5 2 sctp 48 -------S 0 5.0 2.0 1 52 121 65535 65535
- 72.313696 2 5 sctp 1500 -------D 0 2.0 5.0 1 57 119 0 56
r 72.337696 2 5 sctp 1500 -------D 0 2.0 5.0 1 53 113 0 52
r 72.337696 5 2 sctp 48 -------S 0 5.0 2.0 1 48 116 65535 65535
+ 72.337696 2 5 sctp 1500 -------D 0 2.0 5.0 1 59 122 0 58
+ 72.337696 2 5 sctp 1500 -------D 0 2.0 5.0 1 60 123 0 59
+ 72.337696 2 5 sctp 1500 -------D 0 2.0 5.0 1 61 124 0 60
- 72.337696 2 5 sctp 1500 -------D 0 2.0 5.0 1 58 120 0 57
r 72.361696 2 5 sctp 1500 -------D 0 2.0 5.0 1 54 114 0 53
+ 72.361696 5 2 sctp 48 -------S 0 5.0 2.0 1 54 125 65535 65535
- 72.361696 5 2 sctp 48 -------S 0 5.0 2.0 1 54 125 65535 65535
- 72.361696 2 5 sctp 1500 -------D 0 2.0 5.0 1 59 122 0 58
r 72.385696 2 5 sctp 1500 -------D 0 2.0 5.0 1 55 115 0 54
- 72.385696 2 5 sctp 1500 -------D 0 2.0 5.0 1 60 123 0 59
- 72.409696 2 5 sctp 1500 -------D 0 2.0 5.0 1 61 124 0 60
r 72.466464 5 2 sctp 48 -------S 0 5.0 2.0 1 50 117 65535 65535
+ 72.466464 2 5 sctp 1500 -------D 0 2.0 5.0 1 62 126 0 61
- 72.466464 2 5 sctp 1500 -------D 0 2.0 5.0 1 62 126 0 61
+ 72.466464 2 5 sctp 1500 -------D 0 2.0 5.0 1 63 127 0 62
+ 72.466464 2 5 sctp 1500 -------D 0 2.0 5.0 1 64 128 0 63
- 72.490464 2 5 sctp 1500 -------D 0 2.0 5.0 1 63 127 0 62
r 72.513696 2 5 sctp 1500 -------D 0 2.0 5.0 1 56 118 0 55
+ 72.513696 5 2 sctp 48 -------S 0 5.0 2.0 1 56 129 65535 65535
- 72.513696 5 2 sctp 48 -------S 0 5.0 2.0 1 56 129 65535 65535
r 72.514464 5 2 sctp 48 -------S 0 5.0 2.0 1 52 121 65535 65535
+ 72.514464 2 5 sctp 1500 -------D 0 2.0 5.0 1 65 130 0 64
+ 72.514464 2 5 sctp 1500 -------D 0 2.0 5.0 1 66 131 0 65
+ 72.514464 2 5 sctp 1500 -------D 0 2.0 5.0 1 67 132 0 66
- 72.514464 2 5 sctp 1500 -------D 0 2.0 5.0 1 64 128 0 63
r 72.537696 2 5 sctp 1500 -------D 0 2.0 5.0 1 57 119 0 56
- 72.538464 2 5 sctp 1500 -------D 0 2.0 5.0 1 65 130 0 64
r 72.561696 2 5 sctp 1500 -------D 0 2.0 5.0 1 58 120 0 57
+ 72.561696 5 2 sctp 48 -------S 0 5.0 2.0 1 58 133 65535 65535
- 72.561696 5 2 sctp 48 -------S 0 5.0 2.0 1 58 133 65535 65535
r 72.562464 5 2 sctp 48 -------S 0 5.0 2.0 1 54 125 65535 65535
+ 72.562464 2 5 sctp 1500 -------D 0 2.0 5.0 1 68 134 0 67
+ 72.562464 2 5 sctp 1500 -------D 0 2.0 5.0 1 69 135 0 68
+ 72.562464 2 5 sctp 1500 -------D 0 2.0 5.0 1 70 136 0 69
- 72.562464 2 5 sctp 1500 -------D 0 2.0 5.0 1 66 131 0 65
r 72.585696 2 5 sctp 1500 -------D 0 2.0 5.0 1 59 122 0 58
- 72.586464 2 5 sctp 1500 -------D 0 2.0 5.0 1 67 132 0 66
r 72.609696 2 5 sctp 1500 -------D 0 2.0 5.0 1 60 123 0 59
+ 72.609696 5 2 sctp 48 -------S 0 5.0 2.0 1 60 137 65535 65535
- 72.609696 5 2 sctp 48 -------S 0 5.0 2.0 1 60 137 65535 65535
- 72.610464 2 5 sctp 1500 -------D 0 2.0 5.0 1 68 134 0 67
r 72.633696 2 5 sctp 1500 -------D 0 2.0 5.0 1 61 124 0 60
- 72.634464 2 5 sctp 1500 -------D 0 2.0 5.0 1 69 135 0 68
- 72.658464 2 5 sctp 1500 -------D 0 2.0 5.0 1 70 136 0 69
r 72.690464 2 5 sctp 1500 -------D 0 2.0 5.0 1 62 126 0 61
+ 72.690464 5 2 sctp 48 -------S 0 5.0 2.0 1 62 138 65535 65535
- 72.690464 5 2 sctp 48 -------S 0 5.0 2.0 1 62 138 65535 65535
r 72.714464 2 5 sctp 1500 -------D 0 2.0 5.0 1 63 127 0 62
r 72.714464 5 2 sctp 48 -------S 0 5.0 2.0 1 56 129 65535 65535
+ 72.714464 2 5 sctp 1500 -------D 0 2.0 5.0 1 71 139 0 70
- 72.714464 2 5 sctp 1500 -------D 0 2.0 5.0 1 71 139 0 70
+ 72.714464 2 5 sctp 1500 -------D 0 2.0 5.0 1 72 140 0 71
+ 72.714464 2 5 sctp 1500 -------D 0 2.0 5.0 1 73 141 0 72
r 72.738464 2 5 sctp 1500 -------D 0 2.0 5.0 1 64 128 0 63
+ 72.738464 5 2 sctp 48 -------S 0 5.0 2.0 1 64 142 65535 65535
- 72.738464 5 2 sctp 48 -------S 0 5.0 2.0 1 64 142 65535 65535
- 72.738464 2 5 sctp 1500 -------D 0 2.0 5.0 1 72 140 0 71
r 72.762464 2 5 sctp 1500 -------D 0 2.0 5.0 1 65 130 0 64
r 72.762464 5 2 sctp 48 -------S 0 5.0 2.0 1 58 133 65535 65535
+ 72.762464 2 5 sctp 1500 -------D 0 2.0 5.0 1 74 143 0 73
+ 72.762464 2 5 sctp 1500 -------D 0 2.0 5.0 1 75 144 0 74
+ 72.762464 2 5 sctp 1500 -------D 0 2.0 5.0 1 76 145 0 75
- 72.762464 2 5 sctp 1500 -------D 0 2.0 5.0 1 73 141 0 72
r 72.786464 2 5 sctp 1500 -------D 0 2.0 5.0 1 66 131 0 65
+ 72.786464 5 2 sctp 48 -------S 0 5.0 2.0 1 66 146 65535 65535
- 72.786464 5 2 sctp 48 -------S 0 5.0 2.0 1 66 146 65535 65535
- 72.786464 2 5 sctp 1500 -------D 0 2.0 5.0 1 74 143 0 73
r 72.810464 2 5 sctp 1500 -------D 0 2.0 5.0 1 67 132 0 66
r 72.810464 5 2 sctp 48 -------S 0 5.0 2.0 1 60 137 65535 65535
+ 72.810464 2 5 sctp 1500 -------D 0 2.0 5.0 1 77 147 0 76
+ 72.810464 2 5 sctp 1500 -------D 0 2.0 5.0 1 78 148 0 77
+ 72.810464 2 5 sctp 1500 -------D 0 2.0 5.0 1 79 149 0 78
- 72.810464 2 5 sctp 1500 -------D 0 2.0 5.0 1 75 144 0 74
r 72.834464 2 5 sctp 1500 -------D 0 2.0 5.0 1 68 134 0 67
+ 72.834464 5 2 sctp 48 -------S 0 5.0 2.0 1 68 150 65535 65535
- 72.834464 5 2 sctp 48 -------S 0 5.0 2.0 1 68 150 65535 65535
- 72.834464 2 5 sctp 1500 -------D 0 2.0 5.0 1 76 145 0 75
r 72.858464 2 5 sctp 1500 -------D 0 2.0 5.0 1 69 135 0 68
- 72.858464 2 5 sctp 1500 -------D 0 2.0 5.0 1 77 147 0 76
r 72.882464 2 5 sctp 1500 -------D 0 2.0 5.0 1 70 136 0 69
+ 72.882464 5 2 sctp 48 -------S 0 5.0 2.0 1 70 151 65535 65535
- 72.882464 5 2 sctp 48 -------S 0 5.0 2.0 1 70 151 65535 65535
- 72.882464 2 5 sctp 1500 -------D 0 2.0 5.0 1 78 148 0 77
r 72.891232 5 2 sctp 48 -------S 0 5.0 2.0 1 62 138 65535 65535
+ 72.891232 2 5 sctp 1500 -------D 0 2.0 5.0 1 80 152 0 79
+ 72.891232 2 5 sctp 1500 -------D 0 2.0 5.0 1 81 153 0 80
+ 72.891232 2 5 sctp 1500 -------D 0 2.0 5.0 1 82 154 0 81
- 72.906464 2 5 sctp 1500 -------D 0 2.0 5.0 1 79 149 0 78
- 72.930464 2 5 sctp 1500 -------D 0 2.0 5.0 1 80 152 0 79
r 72.938464 2 5 sctp 1500 -------D 0 2.0 5.0 1 71 139 0 70
r 72.939232 5 2 sctp 48 -------S 0 5.0 2.0 1 64 142 65535 65535
+ 72.939232 2 5 sctp 1500 -------D 0 2.0 5.0 1 83 155 0 82
+ 72.939232 2 5 sctp 1500 -------D 0 2.0 5.0 1 84 156 0 83
+ 72.939232 2 5 sctp 1500 -------D 0 2.0 5.0 1 85 157 0 84
- 72.954464 2 5 sctp 1500 -------D 0 2.0 5.0 1 81 153 0 80
r 72.962464 2 5 sctp 1500 -------D 0 2.0 5.0 1 72 140 0 71
+ 72.962464 5 2 sctp 48 -------S 0 5.0 2.0 1 72 158 65535 65535
- 72.962464 5 2 sctp 48 -------S 0 5.0 2.0 1 72 158 65535 65535
- 72.978464 2 5 sctp 1500 -------D 0 2.0 5.0 1 82 154 0 81
r 72.986464 2 5 sctp 1500 -------D 0 2.0 5.0 1 73 141 0 72
r 72.987232 5 2 sctp 48 -------S 0 5.0 2.0 1 66 146 65535 65535
+ 72.987232 2 5 sctp 1500 -------D 0 2.0 5.0 1 86 159 0 85
+ 72.987232 2 5 sctp 1500 -------D 0 2.0 5.0 1 87 160 0 86
+ 72.987232 2 5 sctp 1500 -------D 0 2.0 5.0 1 88 161 0 87
- 73.002464 2 5 sctp 1500 -------D 0 2.0 5.0 1 83 155 0 82
r 73.010464 2 5 sctp 1500 -------D 0 2.0 5.0 1 74 143 0 73
+ 73.010464 5 2 sctp 48 -------S 0 5.0 2.0 1 74 162 65535 65535
- 73.010464 5 2 sctp 48 -------S 0 5.0 2.0 1 74 162 65535 65535
- 73.026464 2 5 sctp 1500 -------D 0 2.0 5.0 1 84 156 0 83
r 73.034464 2 5 sctp 1500 -------D 0 2.0 5.0 1 75 144 0 74
r 73.035232 5 2 sctp 48 -------S 0 5.0 2.0 1 68 150 65535 65535
+ 73.035232 2 5 sctp 1500 -------D 0 2.0 5.0 1 89 163 0 88
+ 73.035232 2 5 sctp 1500 -------D 0 2.0 5.0 1 90 164 0 89
+ 73.035232 2 5 sctp 1500 -------D 0 2.0 5.0 1 91 165 0 90
- 73.050464 2 5 sctp 1500 -------D 0 2.0 5.0 1 85 157 0 84
r 73.058464 2 5 sctp 1500 -------D 0 2.0 5.0 1 76 145 0 75
+ 73.058464 5 2 sctp 48 -------S 0 5.0 2.0 1 76 166 65535 65535
- 73.058464 5 2 sctp 48 -------S 0 5.0 2.0 1 76 166 65535 65535
- 73.074464 2 5 sctp 1500 -------D 0 2.0 5.0 1 86 159 0 85
r 73.082464 2 5 sctp 1500 -------D 0 2.0 5.0 1 77 147 0 76
r 73.083232 5 2 sctp 48 -------S 0 5.0 2.0 1 70 151 65535 65535
+ 73.083232 2 5 sctp 1500 -------D 0 2.0 5.0 1 92 167 0 91
+ 73.083232 2 5 sctp 1500 -------D 0 2.0 5.0 1 93 168 0 92
+ 73.083232 2 5 sctp 1500 -------D 0 2.0 5.0 1 94 169 0 93
- 73.098464 2 5 sctp 1500 -------D 0 2.0 5.0 1 87 160 0 86
r 73.106464 2 5 sctp 1500 -------D 0 2.0 5.0 1 78 148 0 77
+ 73.106464 5 2 sctp 48 -------S 0 5.0 2.0 1 78 170 65535 65535
- 73.106464 5 2 sctp 48 -------S 0 5.0 2.0 1 78 170 65535 65535
- 73.122464 2 5 sctp 1500 -------D 0 2.0 5.0 1 88 161 0 87
r 73.130464 2 5 sctp 1500 -------D 0 2.0 5.0 1 79 149 0 78
- 73.146464 2 5 sctp 1500 -------D 0 2.0 5.0 1 89 163 0 88
r 73.154464 2 5 sctp 1500 -------D 0 2.0 5.0 1 80 152 0 79
+ 73.154464 5 2 sctp 48 -------S 0 5.0 2.0 1 80 171 65535 65535
- 73.154464 5 2 sctp 48 -------S 0 5.0 2.0 1 80 171 65535 65535
r 73.163232 5 2 sctp 48 -------S 0 5.0 2.0 1 72 158 65535 65535
+ 73.163232 2 5 sctp 1500 -------D 0 2.0 5.0 1 95 172 0 94
+ 73.163232 2 5 sctp 1500 -------D 0 2.0 5.0 1 96 173 0 95
+ 73.163232 2 5 sctp 1500 -------D 0 2.0 5.0 1 97 174 0 96
- 73.170464 2 5 sctp 1500 -------D 0 2.0 5.0 1 90 164 0 89
r 73.178464 2 5 sctp 1500 -------D 0 2.0 5.0 1 81 153 0 80
- 73.194464 2 5 sctp 1500 -------D 0 2.0 5.0 1 91 165 0 90
r 73.202464 2 5 sctp 1500 -------D 0 2.0 5.0 1 82 154 0 81
+ 73.202464 5 2 sctp 48 -------S 0 5.0 2.0 1 82 175 65535 65535
- 73.202464 5 2 sctp 48 -------S 0 5.0 2.0 1 82 175 65535 65535
r 73.211232 5 2 sctp 48 -------S 0 5.0 2.0 1 74 162 65535 65535
+ 73.211232 2 5 sctp 1500 -------D 0 2.0 5.0 1 98 176 0 97
+ 73.211232 2 5 sctp 1500 -------D 0 2.0 5.0 1 99 177 0 98
+ 73.211232 2 5 sctp 1500 -------D 0 2.0 5.0 1 100 178 0 99
- 73.218464 2 5 sctp 1500 -------D 0 2.0 5.0 1 92 167 0 91
r 73.226464 2 5 sctp 1500 -------D 0 2.0 5.0 1 83 155 0 82
- 73.242464 2 5 sctp 1500 -------D 0 2.0 5.0 1 93 168 0 92
r 73.250464 2 5 sctp 1500 -------D 0 2.0 5.0 1 84 156 0 83
+ 73.250464 5 2 sctp 48 -------S 0 5.0 2.0 1 84 179 65535 65535
- 73.250464 5 2 sctp 48 -------S 0 5.0 2.0 1 84 179 65535 65535
r 73.259232 5 2 sctp 48 -------S 0 5.0 2.0 1 76 166 65535 65535
+ 73.259232 2 5 sctp 1500 -------D 0 2.0 5.0 1 101 180 0 100
+ 73.259232 2 5 sctp 1500 -------D 0 2.0 5.0 1 102 181 0 101
+ 73.259232 2 5 sctp 1500 -------D 0 2.0 5.0 1 103 182 0 102
- 73.266464 2 5 sctp 1500 -------D 0 2.0 5.0 1 94 169 0 93
r 73.274464 2 5 sctp 1500 -------D 0 2.0 5.0 1 85 157 0 84
- 73.290464 2 5 sctp 1500 -------D 0 2.0 5.0 1 95 172 0 94
r 73.298464 2 5 sctp 1500 -------D 0 2.0 5.0 1 86 159 0 85
+ 73.298464 5 2 sctp 48 -------S 0 5.0 2.0 1 86 183 65535 65535
- 73.298464 5 2 sctp 48 -------S 0 5.0 2.0 1 86 183 65535 65535
r 73.307232 5 2 sctp 48 -------S 0 5.0 2.0 1 78 170 65535 65535
+ 73.307232 2 5 sctp 1500 -------D 0 2.0 5.0 1 104 184 0 103
+ 73.307232 2 5 sctp 1500 -------D 0 2.0 5.0 1 105 185 0 104
+ 73.307232 2 5 sctp 1500 -------D 0 2.0 5.0 1 106 186 0 105
- 73.314464 2 5 sctp 1500 -------D 0 2.0 5.0 1 96 173 0 95
r 73.322464 2 5 sctp 1500 -------D 0 2.0 5.0 1 87 160 0 86
- 73.338464 2 5 sctp 1500 -------D 0 2.0 5.0 1 97 174 0 96
r 73.346464 2 5 sctp 1500 -------D 0 2.0 5.0 1 88 161 0 87
+ 73.346464 5 2 sctp 48 -------S 0 5.0 2.0 1 88 187 65535 65535
- 73.346464 5 2 sctp 48 -------S 0 5.0 2.0 1 88 187 65535 65535
r 73.355232 5 2 sctp 48 -------S 0 5.0 2.0 1 80 171 65535 65535
+ 73.355232 2 5 sctp 1500 -------D 0 2.0 5.0 1 107 188 0 106
+ 73.355232 2 5 sctp 1500 -------D 0 2.0 5.0 1 108 189 0 107
+ 73.355232 2 5 sctp 1500 -------D 0 2.0 5.0 1 109 190 0 108
- 73.362464 2 5 sctp 1500 -------D 0 2.0 5.0 1 98 176 0 97
r 73.370464 2 5 sctp 1500 -------D 0 2.0 5.0 1 89 163 0 88
- 73.386464 2 5 sctp 1500 -------D 0 2.0 5.0 1 99 177 0 98
r 73.394464 2 5 sctp 1500 -------D 0 2.0 5.0 1 90 164 0 89
+ 73.394464 5 2 sctp 48 -------S 0 5.0 2.0 1 90 191 65535 65535
- 73.394464 5 2 sctp 48 -------S 0 5.0 2.0 1 90 191 65535 65535
r 73.403232 5 2 sctp 48 -------S 0 5.0 2.0 1 82 175 65535 65535
+ 73.403232 2 5 sctp 1500 -------D 0 2.0 5.0 1 110 192 0 109
+ 73.403232 2 5 sctp 1500 -------D 0 2.0 5.0 1 111 193 0 110