s 0.000960000 _0_ MAC  --- 0 CM7 8 [0 ffffffff 0 0] 
r 0.001408033 _1_ MAC  --- 0 CM7 8 [0 ffffffff 0 0] 
r 0.001408033 _9_ MAC  --- 0 CM7 8 [0 ffffffff 0 0] 
r 0.001408033 _19_ MAC  --- 0 CM7 8 [0 ffffffff 0 0] 
r 0.001408033 _13_ MAC  --- 0 CM7 8 [0 ffffffff 0 0] 
s 0.142400000 _0_ MAC  --- 0 CM7 8 [0 ffffffff 0 0] 
s 0.281920000 _0_ MAC  --- 0 CM7 8 [0 ffffffff 0 0] 
s 0.300640000 _1_ MAC  --- 0 CM7 8 [0 ffffffff 1 0] 
r 0.301088033 _5_ MAC  --- 0 CM7 8 [0 ffffffff 1 0] 
r 0.301088033 _2_ MAC  --- 0 CM7 8 [0 ffffffff 1 0] 
r 0.301088033 _7_ MAC  --- 0 CM7 8 [0 ffffffff 1 0] 
s 0.420992000 _0_ MAC  --- 0 BCN 12 [0 ffffffff 0 0] 
s 0.543872000 _0_ MAC  --- 0 BCN 12 [0 ffffffff 0 0] 
s 0.564000000 _1_ MAC  --- 0 CM7 8 [0 ffffffff 1 0] 
s 0.666752000 _0_ MAC  --- 0 BCN 12 [0 ffffffff 0 0] 
s 0.789632000 _0_ MAC  --- 0 BCN 12 [0 ffffffff 0 0] 
s 0.826080000 _1_ MAC  --- 0 CM7 8 [0 ffffffff 1 0] 
s 0.912512000 _0_ MAC  --- 0 BCN 12 [0 ffffffff 0 0] 
s 1.035392000 _0_ MAC  --- 0 BCN 12 [0 ffffffff 0 0] 
s 1.089760000 _1_ MAC  --- 0 CM1 17 [0 0 1 0] 
r 1.090496033 _0_ MAC  --- 0 CM1 17 [0 0 1 0] 
s 1.090752000 _0_ MAC  --- 0 ACK 5 [0 1 0 0] 
r 1.091104033 _1_ MAC  --- 0 ACK 5 [0 1 0 0] 
s 1.158272000 _0_ MAC  --- 0 BCN 20 [0 ffffffff 0 0] 
s 1.281152000 _0_ MAC  --- 0 BCN 20 [0 ffffffff 0 0] 
s 1.301600000 _9_ MAC  --- 0 CM7 8 [0 ffffffff 9 0] 
r 1.302048033 _0_ MAC  --- 0 CM7 8 [0 ffffffff 9 0] 
r 1.302048033 _7_ MAC  --- 0 CM7 8 [0 ffffffff 9 0] 
r 1.302048033 _10_ MAC  --- 0 CM7 8 [0 ffffffff 9 0] 
r 1.302048033 _11_ MAC  --- 0 CM7 8 [0 ffffffff 9 0] 
s 1.404032000 _0_ MAC  --- 0 BCN 20 [0 ffffffff 0 0] 
s 1.526912000 _0_ MAC  --- 0 BCN 20 [0 ffffffff 0 0] 
s 1.564000000 _9_ MAC  --- 0 CM7 8 [0 ffffffff 9 0] 
s 1.582624033 _1_ MAC  --- 0 CM4 16 [0 0 1 0] 
r 1.583328067 _0_ MAC  --- 0 CM4 16 [0 0 1 0] 
s 1.583552000 _0_ MAC  --- 0 ACK 5 [0 1 0 0] 
r 1.583904033 _1_ MAC  --- 0 ACK 5 [0 1 0 0] 
s 1.584192000 _0_ MAC  --- 0 CM2 25 [0 1 0 0] 
r 1.585184033 _1_ MAC  --- 0 CM2 25 [0 1 0 0] 
s 1.585376033 _1_ MAC  --- 0 ACK 5 [0 0 1 0] 
r 1.585728067 _0_ MAC  --- 0 ACK 5 [0 0 1 0] 
s 1.649792000 _0_ MAC  --- 0 BCN 12 [0 ffffffff 0 0] 
r 1.650368033 _1_ MAC  --- 0 BCN 12 [0 ffffffff 0 0] 
s 1.700640000 _13_ MAC  --- 0 CM7 8 [0 ffffffff d 0] 
r 1.701088033 _11_ MAC  --- 0 CM7 8 [0 ffffffff d 0] 
r 1.701088033 _0_ MAC  --- 0 CM7 8 [0 ffffffff d 0] 
r 1.701088033 _16_ MAC  --- 0 CM7 8 [0 ffffffff d 0] 
r 1.701088033 _14_ MAC  --- 0 CM7 8 [0 ffffffff d 0] 
s 1.772672000 _0_ MAC  --- 0 BCN 12 [0 ffffffff 0 0] 
r 1.773248033 _1_ MAC  --- 0 BCN 12 [0 ffffffff 0 0] 
s 1.827040000 _9_ MAC  --- 0 CM7 8 [0 ffffffff 9 0] 
s 1.895552000 _0_ MAC  --- 0 BCN 12 [0 ffffffff 0 0] 
r 1.896128033 _1_ MAC  --- 0 BCN 12 [0 ffffffff 0 0] 
s 1.963360000 _13_ MAC  --- 0 CM7 8 [0 ffffffff d 0] 
s 2.018432000 _0_ MAC  --- 0 BCN 12 [0 ffffffff 0 0] 
r 2.019008033 _1_ MAC  --- 0 BCN 12 [0 ffffffff 0 0] 
s 2.091040000 _9_ MAC  --- 0 CM1 17 [0 0 9 0] 
r 2.091776033 _0_ MAC  --- 0 CM1 17 [0 0 9 0] 
s 2.092032000 _0_ MAC  --- 0 ACK 5 [0 9 0 0] 
r 2.092384033 _9_ MAC  --- 0 ACK 5 [0 9 0 0] 
s 2.141312000 _0_ MAC  --- 0 BCN 20 [0 ffffffff 0 0] 
r 2.142144033 _1_ MAC  --- 0 BCN 20 [0 ffffffff 0 0] 
s 2.227040000 _13_ MAC  --- 0 CM7 8 [0 ffffffff d 0] 
s 2.264192000 _0_ MAC  --- 0 BCN 20 [0 ffffffff 0 0] 
r 2.265024033 _1_ MAC  --- 0 BCN 20 [0 ffffffff 0 0] 
s 2.301920000 _19_ MAC  --- 0 CM7 8 [0 ffffffff 13 0] 
r 2.302368033 _0_ MAC  --- 0 CM7 8 [0 ffffffff 13 0] 
r 2.302368033 _2_ MAC  --- 0 CM7 8 [0 ffffffff 13 0] 
r 2.302368033 _20_ MAC  --- 0 CM7 8 [0 ffffffff 13 0] 
r 2.302368033 _16_ MAC  --- 0 CM7 8 [0 ffffffff 13 0] 
s 2.387072000 _0_ MAC  --- 0 BCN 20 [0 ffffffff 0 0] 
r 2.387904033 _1_ MAC  --- 0 BCN 20 [0 ffffffff 0 0] 
s 2.491360000 _13_ MAC  --- 0 CM1 17 [0 0 d 0] 
r 2.492096033 _0_ MAC  --- 0 CM1 17 [0 0 d 0] 
s 2.492352000 _0_ MAC  --- 0 ACK 5 [0 d 0 0] 
r 2.492704033 _13_ MAC  --- 0 ACK 5 [0 d 0 0] 
s 2.509952000 _0_ MAC  --- 0 BCN 20 [0 ffffffff 0 0] 
r 2.510784033 _1_ MAC  --- 0 BCN 20 [0 ffffffff 0 0] 
s 2.564000000 _19_ MAC  --- 0 CM7 8 [0 ffffffff 13 0] 
s 2.583904033 _9_ MAC  --- 0 CM4 16 [0 0 9 0] 
r 2.584608067 _0_ MAC  --- 0 CM4 16 [0 0 9 0] 
s 2.584832000 _0_ MAC  --- 0 ACK 5 [0 9 0 0] 
r 2.585184033 _9_ MAC  --- 0 ACK 5 [0 9 0 0] 
s 2.585472000 _0_ MAC  --- 0 CM2 25 [0 9 0 0] 
r 2.586464033 _9_ MAC  --- 0 CM2 25 [0 9 0 0] 
s 2.586656033 _9_ MAC  --- 0 ACK 5 [0 0 9 0] 
r 2.587008067 _0_ MAC  --- 0 ACK 5 [0 0 9 0] 
s 2.632832000 _0_ MAC  --- 0 BCN 12 [0 ffffffff 0 0] 
r 2.633408033 _1_ MAC  --- 0 BCN 12 [0 ffffffff 0 0] 
r 2.633408033 _9_ MAC  --- 0 BCN 12 [0 ffffffff 0 0] 
s 2.755712000 _0_ MAC  --- 0 BCN 12 [0 ffffffff 0 0] 
r 2.756288033 _1_ MAC  --- 0 BCN 12 [0 ffffffff 0 0] 
r 2.756288033 _9_ MAC  --- 0 BCN 12 [0 ffffffff 0 0] 
s 2.828000000 _19_ MAC  --- 0 CM7 8 [0 ffffffff 13 0] 
s 2.878592000 _0_ MAC  --- 0 BCN 12 [0 ffffffff 0 0] 
r 2.879168033 _1_ MAC  --- 0 BCN 12 [0 ffffffff 0 0] 
r 2.879168033 _9_ MAC  --- 0 BCN 12 [0 ffffffff 0 0] 
s 2.984224033 _13_ MAC  --- 0 CM4 16 [0 0 d 0] 
r 2.984928067 _0_ MAC  --- 0 CM4 16 [0 0 d 0] 
s 2.985152000 _0_ MAC  --- 0 ACK 5 [0 d 0 0] 
r 2.985504033 _13_ MAC  --- 0 ACK 5 [0 d 0 0] 
s 3.001472000 _0_ MAC  --- 0 BCN 12 [0 ffffffff 0 0] 
r 3.002048033 _1_ MAC  --- 0 BCN 12 [0 ffffffff 0 0] 
r 3.002048033 _9_ MAC  --- 0 BCN 12 [0 ffffffff 0 0] 
s 3.091040000 _19_ MAC  --- 0 CM1 17 [0 0 13 0] 
r 3.091776033 _0_ MAC  --- 0 CM1 17 [0 0 13 0] 
s 3.092032000 _0_ MAC  --- 0 ACK 5 [0 13 0 0] 
r 3.092384033 _19_ MAC  --- 0 ACK 5 [0 13 0 0] 
s 3.124352000 _0_ MAC  --- 0 BCN 20 [0 ffffffff 0 0] 
r 3.125184033 _1_ MAC  --- 0 BCN 20 [0 ffffffff 0 0] 
r 3.125184033 _9_ MAC  --- 0 BCN 20 [0 ffffffff 0 0] 
s 3.247232000 _0_ MAC  --- 0 BCN 20 [0 ffffffff 0 0] 
r 3.248064033 _1_ MAC  --- 0 BCN 20 [0 ffffffff 0 0] 
r 3.248064033 _9_ MAC  --- 0 BCN 20 [0 ffffffff 0 0] 
s 3.301600000 _2_ MAC  --- 0 CM7 8 [0 ffffffff 2 0] 
r 3.302048033 _1_ MAC  --- 0 CM7 8 [0 ffffffff 2 0] 
r 3.302048033 _4_ MAC  --- 0 CM7 8 [0 ffffffff 2 0] 
r 3.302048033 _3_ MAC  --- 0 CM7 8 [0 ffffffff 2 0] 
s 3.303872033 _1_ MAC  --- 0 BCN 11 [0 2 1 0] 
s 3.370112000 _0_ MAC  --- 0 BCN 20 [0 ffffffff 0 0] 
r 3.370944033 _1_ MAC  --- 0 BCN 20 [0 ffffffff 0 0] 
r 3.370944033 _9_ MAC  --- 0 BCN 20 [0 ffffffff 0 0] 
s 3.492992000 _0_ MAC  --- 0 BCN 20 [0 ffffffff 0 0] 
r 3.493824033 _1_ MAC  --- 0 BCN 20 [0 ffffffff 0 0] 
r 3.493824033 _9_ MAC  --- 0 BCN 20 [0 ffffffff 0 0] 
s 3.501920000 _7_ MAC  --- 0 CM7 8 [0 ffffffff 7 0] 
r 3.502368033 _1_ MAC  --- 0 CM7 8 [0 ffffffff 7 0] 
r 3.502368033 _6_ MAC  --- 0 CM7 8 [0 ffffffff 7 0] 
r 3.502368033 _8_ MAC  --- 0 CM7 8 [0 ffffffff 7 0] 
r 3.502368033 _9_ MAC  --- 0 CM7 8 [0 ffffffff 7 0] 
s 3.505152033 _9_ MAC  --- 0 BCN 11 [0 7 9 0] 
s 3.505792033 _1_ MAC  --- 0 BCN 11 [0 7 1 0] 
s 3.564640000 _2_ MAC  --- 0 CM7 8 [0 ffffffff 2 0] 
s 3.583904033 _19_ MAC  --- 0 CM4 16 [0 0 13 0] 
r 3.584608067 _0_ MAC  --- 0 CM4 16 [0 0 13 0] 
s 3.584832000 _0_ MAC  --- 0 ACK 5 [0 13 0 0] 
r 3.585184033 _19_ MAC  --- 0 ACK 5 [0 13 0 0] 
s 3.585472000 _0_ MAC  --- 0 CM2 25 [0 13 0 0] 
r 3.586464033 _19_ MAC  --- 0 CM2 25 [0 13 0 0] 
s 3.586656033 _19_ MAC  --- 0 ACK 5 [0 0 13 0] 
r 3.587008067 _0_ MAC  --- 0 ACK 5 [0 0 13 0] 
s 3.601920000 _11_ MAC  --- 0 CM7 8 [0 ffffffff b 0] 
r 3.602368033 _9_ MAC  --- 0 CM7 8 [0 ffffffff b 0] 
r 3.602368033 _12_ MAC  --- 0 CM7 8 [0 ffffffff b 0] 
r 3.602368033 _13_ MAC  --- 0 CM7 8 [0 ffffffff b 0] 
r 3.602368033 _15_ MAC  --- 0 CM7 8 [0 ffffffff b 0] 
s 3.604352033 _9_ MAC  --- 0 BCN 11 [0 b 9 0] 
s 3.615872000 _0_ MAC  --- 0 BCN 12 [0 ffffffff 0 0] 
r 3.616448033 _1_ MAC  --- 0 BCN 12 [0 ffffffff 0 0] 
r 3.616448033 _9_ MAC  --- 0 BCN 12 [0 ffffffff 0 0] 
r 3.616448033 _19_ MAC  --- 0 BCN 12 [0 ffffffff 0 0] 
s 3.738752000 _0_ MAC  --- 0 BCN 12 [0 ffffffff 0 0] 
r 3.739328033 _1_ MAC  --- 0 BCN 12 [0 ffffffff 0 0] 
r 3.739328033 _9_ MAC  --- 0 BCN 12 [0 ffffffff 0 0] 
r 3.739328033 _19_ MAC  --- 0 BCN 12 [0 ffffffff 0 0] 
s 3.764640000 _7_ MAC  --- 0 CM7 8 [0 ffffffff 7 0] 
s 3.802240000 _16_ MAC  --- 0 CM7 8 [0 ffffffff 10 0] 
r 3.802688033 _13_ MAC  --- 0 CM7 8 [0 ffffffff 10 0] 
r 3.802688033 _19_ MAC  --- 0 CM7 8 [0 ffffffff 10 0] 
r 3.802688033 _18_ MAC  --- 0 CM7 8 [0 ffffffff 10 0] 
r 3.802688033 _17_ MAC  --- 0 CM7 8 [0 ffffffff 10 0] 
s 3.804992033 _19_ MAC  --- 0 BCN 11 [0 10 13 0] 
s 3.827680000 _2_ MAC  --- 0 CM7 8 [0 ffffffff 2 0] 
s 3.861632000 _0_ MAC  --- 0 BCN 12 [0 ffffffff 0 0] 
r 3.862208033 _1_ MAC  --- 0 BCN 12 [0 ffffffff 0 0] 
r 3.862208033 _9_ MAC  --- 0 BCN 12 [0 ffffffff 0 0] 
r 3.862208033 _19_ MAC  --- 0 BCN 12 [0 ffffffff 0 0] 
s 3.864640000 _11_ MAC  --- 0 CM7 8 [0 ffffffff b 0] 
s 3.984512000 _0_ MAC  --- 0 BCN 12 [0 ffffffff 0 0] 
r 3.985088033 _1_ MAC  --- 0 BCN 12 [0 ffffffff 0 0] 
r 3.985088033 _9_ MAC  --- 0 BCN 12 [0 ffffffff 0 0] 
r 3.985088033 _19_ MAC  --- 0 BCN 12 [0 ffffffff 0 0] 
s 4.028640000 _7_ MAC  --- 0 CM7 8 [0 ffffffff 7 0] 
s 4.065920000 _16_ MAC  --- 0 CM7 8 [0 ffffffff 10 0] 
s 4.092000000 _2_ MAC  --- 0 CM1 17 [0 1 2 0] 
r 4.092736033 _1_ MAC  --- 0 CM1 17 [0 1 2 0] 
s 4.092992033 _1_ MAC  --- 0 ACK 5 [0 2 1 0] 
r 4.093344067 _2_ MAC  --- 0 ACK 5 [0 2 1 0] 
s 4.107392000 _0_ MAC  --- 0 BCN 12 [0 ffffffff 0 0] 
r 4.107968033 _1_ MAC  --- 0 BCN 12 [0 ffffffff 0 0] 
r 4.107968033 _9_ MAC  --- 0 BCN 12 [0 ffffffff 0 0] 
r 4.107968033 _19_ MAC  --- 0 BCN 12 [0 ffffffff 0 0] 
s 4.127680000 _11_ MAC  --- 0 CM7 8 [0 ffffffff b 0] 
s 4.230272000 _0_ MAC  --- 0 BCN 12 [0 ffffffff 0 0] 
r 4.230848033 _1_ MAC  --- 0 BCN 12 [0 ffffffff 0 0] 
r 4.230848033 _9_ MAC  --- 0 BCN 12 [0 ffffffff 0 0] 
r 4.230848033 _19_ MAC  --- 0 BCN 12 [0 ffffffff 0 0] 
s 4.292640000 _7_ MAC  --- 0 CM1 17 [0 9 7 0] 
r 4.293376033 _9_ MAC  --- 0 CM1 17 [0 9 7 0] 
s 4.293632033 _9_ MAC  --- 0 ACK 5 [0 7 9 0] 
r 4.293984067 _7_ MAC  --- 0 ACK 5 [0 7 9 0] 
s 4.300320000 _3_ MAC  --- 0 CM7 8 [0 ffffffff 3 0] 
r 4.300768033 _20_ MAC  --- 0 CM7 8 [0 ffffffff 3 0] 
s 4.328000000 _16_ MAC  --- 0 CM7 8 [0 ffffffff 10 0] 
s 4.353152000 _0_ MAC  --- 0 BCN 12 [0 ffffffff 0 0] 
r 4.353728033 _1_ MAC  --- 0 BCN 12 [0 ffffffff 0 0] 
r 4.353728033 _9_ MAC  --- 0 BCN 12 [0 ffffffff 0 0] 
r 4.353728033 _19_ MAC  --- 0 BCN 12 [0 ffffffff 0 0] 
s 4.390720000 _11_ MAC  --- 0 CM1 17 [0 9 b 0] 
r 4.391456033 _9_ MAC  --- 0 CM1 17 [0 9 b 0] 
s 4.391872033 _9_ MAC  --- 0 ACK 5 [0 b 9 0] 
r 4.392224067 _11_ MAC  --- 0 ACK 5 [0 b 9 0] 
s 4.476032000 _0_ MAC  --- 0 BCN 12 [0 ffffffff 0 0] 
r 4.476608033 _1_ MAC  --- 0 BCN 12 [0 ffffffff 0 0] 
r 4.476608033 _9_ MAC  --- 0 BCN 12 [0 ffffffff 0 0] 
r 4.476608033 _19_ MAC  --- 0 BCN 12 [0 ffffffff 0 0] 
s 4.478944033 _13_ MAC  --- 0 CM7 8 [0 ffffffff d 0] 
r 4.479392067 _0_ MAC  --- 0 CM7 8 [0 ffffffff d 0] 
r 4.479392067 _14_ MAC  --- 0 CM7 8 [0 ffffffff d 0] 
s 4.501600000 _6_ MAC  --- 0 CM7 8 [0 ffffffff 6 0] 
r 4.502048033 _5_ MAC  --- 0 CM7 8 [0 ffffffff 6 0] 
s 4.562720000 _3_ MAC  --- 0 CM7 8 [0 ffffffff 3 0] 
s 4.584864067 _2_ MAC  --- 0 CM4 16 [0 1 2 0] 
r 4.585568100 _1_ MAC  --- 0 CM4 16 [0 1 2 0] 
s 4.585792033 _1_ MAC  --- 0 ACK 5 [0 2 1 0] 
r 4.586144067 _2_ MAC  --- 0 ACK 5 [0 2 1 0] 
s 4.586432033 _1_ MAC  --- 0 CM2 25 [0 2 1 0] 
r 4.587424067 _2_ MAC  --- 0 CM2 25 [0 2 1 0] 
s 4.587616067 _2_ MAC  --- 0 ACK 5 [0 1 2 0] 
r 4.587968100 _1_ MAC  --- 0 ACK 5 [0 1 2 0] 
s 4.588800067 _2_ MAC  --- 0 BCN 12 [0 ffffffff 2 0] 
D 4.589376100 _1_ MAC  COO 0 BCN 12 [0 ffffffff 2 0] 
D 4.589376100 _19_ MAC  COO 0 BCN 12 [0 ffffffff 2 0] 
s 4.592320000 _16_ MAC  --- 0 CM1 17 [0 13 10 0] 
r 4.593056033 _19_ MAC  --- 0 CM1 17 [0 13 10 0] 
s 4.593472033 _19_ MAC  --- 0 ACK 5 [0 10 13 0] 
r 4.593824067 _16_ MAC  --- 0 ACK 5 [0 10 13 0] 
s 4.598912000 _0_ MAC  --- 0 BCN 12 [0 ffffffff 0 0] 
r 4.599488033 _1_ MAC  --- 0 BCN 12 [0 ffffffff 0 0] 
r 4.599488033 _9_ MAC  --- 0 BCN 12 [0 ffffffff 0 0] 
r 4.599488033 _19_ MAC  --- 0 BCN 12 [0 ffffffff 0 0] 
s 4.711680067 _2_ MAC  --- 0 BCN 12 [0 ffffffff 2 0] 
D 4.712256100 _1_ MAC  COO 0 BCN 12 [0 ffffffff 2 0] 
D 4.712256100 _19_ MAC  COO 0 BCN 12 [0 ffffffff 2 0] 
s 4.721792000 _0_ MAC  --- 0 BCN 12 [0 ffffffff 0 0] 
r 4.722368033 _1_ MAC  --- 0 BCN 12 [0 ffffffff 0 0] 
r 4.722368033 _9_ MAC  --- 0 BCN 12 [0 ffffffff 0 0] 
r 4.722368033 _19_ MAC  --- 0 BCN 12 [0 ffffffff 0 0] 
s 4.743264033 _13_ MAC  --- 0 CM7 8 [0 ffffffff d 0] 
s 4.764640000 _6_ MAC  --- 0 CM7 8 [0 ffffffff 6 0] 
s 4.785504067 _7_ MAC  --- 0 CM4 16 [0 9 7 0] 
r 4.786208100 _9_ MAC  --- 0 CM4 16 [0 9 7 0] 
s 4.786432033 _9_ MAC  --- 0 ACK 5 [0 7 9 0] 
r 4.786784067 _7_ MAC  --- 0 ACK 5 [0 7 9 0] 
s 4.787072033 _9_ MAC  --- 0 CM2 25 [0 7 9 0] 
r 4.788064067 _7_ MAC  --- 0 CM2 25 [0 7 9 0] 
s 4.788256067 _7_ MAC  --- 0 ACK 5 [0 9 7 0] 
r 4.788608100 _9_ MAC  --- 0 ACK 5 [0 9 7 0] 
s 4.789440067 _7_ MAC  --- 0 BCN 12 [0 ffffffff 7 0] 
D 4.790016100 _1_ MAC  COO 0 BCN 12 [0 ffffffff 7 0] 
D 4.790016100 _9_ MAC  COO 0 BCN 12 [0 ffffffff 7 0] 
s 4.800960000 _12_ MAC  --- 0 CM7 8 [0 ffffffff c 0] 
r 4.801408033 _10_ MAC  --- 0 CM7 8 [0 ffffffff c 0] 
s 4.826720000 _3_ MAC  --- 0 CM7 8 [0 ffffffff 3 0] 
s 4.834560067 _2_ MAC  --- 0 BCN 12 [0 ffffffff 2 0] 
D 4.835136100 _1_ MAC  COO 0 BCN 12 [0 ffffffff 2 0] 
D 4.835136100 _19_ MAC  COO 0 BCN 12 [0 ffffffff 2 0] 
s 4.844672000 _0_ MAC  --- 0 BCN 12 [0 ffffffff 0 0] 
r 4.845248033 _1_ MAC  --- 0 BCN 12 [0 ffffffff 0 0] 
r 4.845248033 _9_ MAC  --- 0 BCN 12 [0 ffffffff 0 0] 
r 4.845248033 _19_ MAC  --- 0 BCN 12 [0 ffffffff 0 0] 
s 4.883744067 _11_ MAC  --- 0 CM4 16 [0 9 b 0] 
r 4.884448100 _9_ MAC  --- 0 CM4 16 [0 9 b 0] 
s 4.884672033 _9_ MAC  --- 0 ACK 5 [0 b 9 0] 
r 4.885024067 _11_ MAC  --- 0 ACK 5 [0 b 9 0] 
s 4.912320067 _7_ MAC  --- 0 BCN 12 [0 ffffffff 7 0] 
D 4.912896100 _1_ MAC  COO 0 BCN 12 [0 ffffffff 7 0] 
D 4.912896100 _9_ MAC  COO 0 BCN 12 [0 ffffffff 7 0] 
s 4.957440067 _2_ MAC  --- 0 BCN 12 [0 ffffffff 2 0] 
D 4.958016100 _1_ MAC  COO 0 BCN 12 [0 ffffffff 2 0] 
D 4.958016100 _19_ MAC  COO 0 BCN 12 [0 ffffffff 2 0] 
s 4.967552000 _0_ MAC  --- 0 BCN 12 [0 ffffffff 0 0] 
r 4.968128033 _1_ MAC  --- 0 BCN 12 [0 ffffffff 0 0] 
r 4.968128033 _9_ MAC  --- 0 BCN 12 [0 ffffffff 0 0] 
r 4.968128033 _19_ MAC  --- 0 BCN 12 [0 ffffffff 0 0] 
s 5.006304033 _13_ MAC  --- 0 CM7 8 [0 ffffffff d 0] 
s 5.028320000 _6_ MAC  --- 0 CM7 8 [0 ffffffff 6 0] 
s 5.035200067 _7_ MAC  --- 0 BCN 12 [0 ffffffff 7 0] 
D 5.035776100 _1_ MAC  COO 0 BCN 12 [0 ffffffff 7 0] 
D 5.035776100 _9_ MAC  COO 0 BCN 12 [0 ffffffff 7 0] 
s 5.063680000 _12_ MAC  --- 0 CM7 8 [0 ffffffff c 0] 
s 5.080320067 _2_ MAC  --- 0 BCN 12 [0 ffffffff 2 0] 
D 5.080896100 _1_ MAC  COO 0 BCN 12 [0 ffffffff 2 0] 
D 5.080896100 _19_ MAC  COO 0 BCN 12 [0 ffffffff 2 0] 
s 5.085344067 _16_ MAC  --- 0 CM4 16 [0 13 10 0] 
r 5.086048100 _19_ MAC  --- 0 CM4 16 [0 13 10 0] 
s 5.086272033 _19_ MAC  --- 0 ACK 5 [0 10 13 0] 
r 5.086624067 _16_ MAC  --- 0 ACK 5 [0 10 13 0] 
s 5.086912033 _19_ MAC  --- 0 CM2 25 [0 10 13 0] 
r 5.087904067 _16_ MAC  --- 0 CM2 25 [0 10 13 0] 
s 5.088096067 _16_ MAC  --- 0 ACK 5 [0 13 10 0] 
r 5.088448100 _19_ MAC  --- 0 ACK 5 [0 13 10 0] 
s 5.089280067 _16_ MAC  --- 0 BCN 12 [0 ffffffff 10 0] 
D 5.089856100 _19_ MAC  COO 0 BCN 12 [0 ffffffff 10 0] 
s 5.090432000 _0_ MAC  --- 0 BCN 12 [0 ffffffff 0 0] 
r 5.091008033 _1_ MAC  --- 0 BCN 12 [0 ffffffff 0 0] 
r 5.091008033 _9_ MAC  --- 0 BCN 12 [0 ffffffff 0 0] 
r 5.091008033 _19_ MAC  --- 0 BCN 12 [0 ffffffff 0 0] 
s 5.100640000 _17_ MAC  --- 0 CM7 8 [0 ffffffff 11 0] 
r 5.101088033 _14_ MAC  --- 0 CM7 8 [0 ffffffff 11 0] 
r 5.101088033 _16_ MAC  --- 0 CM7 8 [0 ffffffff 11 0] 
s 5.158080067 _7_ MAC  --- 0 BCN 12 [0 ffffffff 7 0] 
D 5.158656100 _1_ MAC  COO 0 BCN 12 [0 ffffffff 7 0] 
D 5.158656100 _9_ MAC  COO 0 BCN 12 [0 ffffffff 7 0] 
s 5.203200067 _2_ MAC  --- 0 BCN 12 [0 ffffffff 2 0] 
D 5.203776100 _1_ MAC  COO 0 BCN 12 [0 ffffffff 2 0] 
D 5.203776100 _19_ MAC  COO 0 BCN 12 [0 ffffffff 2 0] 
s 5.212160067 _16_ MAC  --- 0 BCN 12 [0 ffffffff 10 0] 
D 5.212736100 _19_ MAC  COO 0 BCN 12 [0 ffffffff 10 0] 
s 5.213312000 _0_ MAC  --- 0 BCN 12 [0 ffffffff 0 0] 
r 5.213888033 _1_ MAC  --- 0 BCN 12 [0 ffffffff 0 0] 
r 5.213888033 _9_ MAC  --- 0 BCN 12 [0 ffffffff 0 0] 
r 5.213888033 _19_ MAC  --- 0 BCN 12 [0 ffffffff 0 0] 
s 5.269344033 _13_ MAC  --- 0 CM1 17 [0 0 d 0] 
r 5.270080067 _0_ MAC  --- 0 CM1 17 [0 0 d 0] 
s 5.270592000 _0_ MAC  --- 0 ACK 5 [0 d 0 0] 
s 5.273184033 _13_ MAC  --- 0 CM1 17 [0 0 d 0] 
D 5.273920067 _0_ MAC  DUP 0 CM1 17 [0 0 d 0] 
s 5.274432000 _0_ MAC  --- 0 ACK 5 [0 d 0 0] 
s 5.275424033 _13_ MAC  --- 0 CM1 17 [0 0 d 0] 
D 5.276160067 _0_ MAC  DUP 0 CM1 17 [0 0 d 0] 
s 5.276672000 _0_ MAC  --- 0 ACK 5 [0 d 0 0] 
s 5.277344033 _13_ MAC  --- 0 CM1 17 [0 0 d 0] 
D 5.278080067 _0_ MAC  DUP 0 CM1 17 [0 0 d 0] 
s 5.278592000 _0_ MAC  --- 0 ACK 5 [0 d 0 0] 
s 5.280960067 _7_ MAC  --- 0 BCN 12 [0 ffffffff 7 0] 
s 5.281184033 _13_ MAC  --- 0 CM1 17 [0 0 d 0] 
D 5.281536100 _1_ MAC  COO 0 BCN 12 [0 ffffffff 7 0] 
D 5.281536100 _9_ MAC  COO 0 BCN 12 [0 ffffffff 7 0] 
D 5.281920067 _0_ MAC  DUP 0 CM1 17 [0 0 d 0] 
s 5.282432000 _0_ MAC  --- 0 ACK 5 [0 d 0 0] 
s 5.283744033 _13_ MAC  --- 0 CM1 17 [0 0 d 0] 
D 5.284480067 _0_ MAC  DUP 0 CM1 17 [0 0 d 0] 
s 5.284992000 _0_ MAC  --- 0 ACK 5 [0 d 0 0] 
s 5.287904033 _13_ MAC  --- 0 CM1 17 [0 0 d 0] 
D 5.288640067 _0_ MAC  DUP 0 CM1 17 [0 0 d 0] 
s 5.289152000 _0_ MAC  --- 0 ACK 5 [0 d 0 0] 
s 5.292064033 _13_ MAC  --- 0 CM1 17 [0 0 d 0] 
D 5.292800067 _0_ MAC  DUP 0 CM1 17 [0 0 d 0] 
s 5.293312000 _0_ MAC  --- 0 ACK 5 [0 d 0 0] 
s 5.294944033 _13_ MAC  --- 0 CM1 17 [0 0 d 0] 
D 5.295680067 _0_ MAC  DUP 0 CM1 17 [0 0 d 0] 
s 5.296192000 _0_ MAC  --- 0 ACK 5 [0 d 0 0] 
s 5.298464033 _13_ MAC  --- 0 CM1 17 [0 0 d 0] 
D 5.299200067 _0_ MAC  DUP 0 CM1 17 [0 0 d 0] 
s 5.299712000 _0_ MAC  --- 0 ACK 5 [0 d 0 0] 
s 5.302304033 _13_ MAC  --- 0 CM1 17 [0 0 d 0] 
D 5.303040067 _0_ MAC  DUP 0 CM1 17 [0 0 d 0] 
s 5.303552000 _0_ MAC  --- 0 ACK 5 [0 d 0 0] 
s 5.306464033 _13_ MAC  --- 0 CM1 17 [0 0 d 0] 
D 5.307200067 _0_ MAC  DUP 0 CM1 17 [0 0 d 0] 
s 5.307712000 _0_ MAC  --- 0 ACK 5 [0 d 0 0] 
s 5.310624033 _13_ MAC  --- 0 CM1 17 [0 0 d 0] 
D 5.311360067 _0_ MAC  DUP 0 CM1 17 [0 0 d 0] 
s 5.311872000 _0_ MAC  --- 0 ACK 5 [0 d 0 0] 
s 5.314144033 _13_ MAC  --- 0 CM1 17 [0 0 d 0] 
D 5.314880067 _0_ MAC  DUP 0 CM1 17 [0 0 d 0] 
s 5.315392000 _0_ MAC  --- 0 ACK 5 [0 d 0 0] 
s 5.316064033 _13_ MAC  --- 0 CM1 17 [0 0 d 0] 
D 5.316800067 _0_ MAC  DUP 0 CM1 17 [0 0 d 0] 
s 5.317312000 _0_ MAC  --- 0 ACK 5 [0 d 0 0] 
s 5.319904033 _13_ MAC  --- 0 CM1 17 [0 0 d 0] 
D 5.320640067 _0_ MAC  DUP 0 CM1 17 [0 0 d 0] 
s 5.321152000 _0_ MAC  --- 0 ACK 5 [0 d 0 0] 
s 5.322784033 _13_ MAC  --- 0 CM1 17 [0 0 d 0] 
D 5.323520067 _0_ MAC  DUP 0 CM1 17 [0 0 d 0] 
s 5.324032000 _0_ MAC  --- 0 ACK 5 [0 d 0 0] 
s 5.325984033 _13_ MAC  --- 0 CM1 17 [0 0 d 0] 
s 5.326080067 _2_ MAC  --- 0 BCN 12 [0 ffffffff 2 0] 
D 5.326656100 _1_ MAC  COO 0 BCN 12 [0 ffffffff 2 0] 
D 5.326656100 _19_ MAC  COO 0 BCN 12 [0 ffffffff 2 0] 
D 5.326720067 _0_ MAC  DUP 0 CM1 17 [0 0 d 0] 
s 5.327232000 _0_ MAC  --- 0 ACK 5 [0 d 0 0] 
s 5.327904033 _13_ MAC  --- 0 CM1 17 [0 0 d 0] 
s 5.328000000 _12_ MAC  --- 0 CM7 8 [0 ffffffff c 0] 
D 5.328640067 _0_ MAC  DUP 0 CM1 17 [0 0 d 0] 
s 5.329152000 _0_ MAC  --- 0 ACK 5 [0 d 0 0] 
s 5.332064033 _13_ MAC  --- 0 CM1 17 [0 0 d 0] 
D 5.332800067 _0_ MAC  DUP 0 CM1 17 [0 0 d 0] 
s 5.333312000 _0_ MAC  --- 0 ACK 5 [0 d 0 0] 
s 5.335040067 _16_ MAC  --- 0 BCN 12 [0 ffffffff 10 0] 
D 5.335616100 _13_ MAC  COO 0 BCN 12 [0 ffffffff 10 0] 
D 5.335616100 _19_ MAC  COO 0 BCN 12 [0 ffffffff 10 0] 
s 5.336192000 _0_ MAC  --- 0 BCN 20 [0 ffffffff 0 0] 
r 5.337024033 _1_ MAC  --- 0 BCN 20 [0 ffffffff 0 0] 
r 5.337024033 _9_ MAC  --- 0 BCN 20 [0 ffffffff 0 0] 
r 5.337024033 _19_ MAC  --- 0 BCN 20 [0 ffffffff 0 0] 
s 5.340480033 _13_ MAC  --- 0 CM1 17 [0 0 d 0] 
D 5.341216067 _0_ MAC  DUP 0 CM1 17 [0 0 d 0] 
s 5.341632000 _0_ MAC  --- 0 ACK 5 [0 d 0 0] 
r 5.341984033 _13_ MAC  --- 0 ACK 5 [0 d 0 0] 
s 5.363680000 _17_ MAC  --- 0 CM7 8 [0 ffffffff 11 0] 
s 5.403840067 _7_ MAC  --- 0 BCN 12 [0 ffffffff 7 0] 
D 5.404416100 _1_ MAC  COO 0 BCN 12 [0 ffffffff 7 0] 
D 5.404416100 _9_ MAC  COO 0 BCN 12 [0 ffffffff 7 0] 
s 5.448960067 _2_ MAC  --- 0 BCN 12 [0 ffffffff 2 0] 
D 5.449536100 _1_ MAC  COO 0 BCN 12 [0 ffffffff 2 0] 
D 5.449536100 _19_ MAC  COO 0 BCN 12 [0 ffffffff 2 0] 
s 5.457920067 _16_ MAC  --- 0 BCN 12 [0 ffffffff 10 0] 
D 5.458496100 _19_ MAC  COO 0 BCN 12 [0 ffffffff 10 0] 
s 5.459072000 _0_ MAC  --- 0 BCN 20 [0 ffffffff 0 0] 
r 5.459904033 _1_ MAC  --- 0 BCN 20 [0 ffffffff 0 0] 
r 5.459904033 _9_ MAC  --- 0 BCN 20 [0 ffffffff 0 0] 
r 5.459904033 _19_ MAC  --- 0 BCN 20 [0 ffffffff 0 0] 
s 5.526720067 _7_ MAC  --- 0 BCN 12 [0 ffffffff 7 0] 
D 5.527296100 _1_ MAC  COO 0 BCN 12 [0 ffffffff 7 0] 
D 5.527296100 _9_ MAC  COO 0 BCN 12 [0 ffffffff 7 0] 
s 5.571840067 _2_ MAC  --- 0 BCN 12 [0 ffffffff 2 0] 
D 5.572416100 _1_ MAC  COO 0 BCN 12 [0 ffffffff 2 0] 
D 5.572416100 _19_ MAC  COO 0 BCN 12 [0 ffffffff 2 0] 
s 5.580800067 _16_ MAC  --- 0 BCN 12 [0 ffffffff 10 0] 
D 5.581376100 _19_ MAC  COO 0 BCN 12 [0 ffffffff 10 0] 
s 5.581952000 _0_ MAC  --- 0 BCN 20 [0 ffffffff 0 0] 
r 5.582784033 _1_ MAC  --- 0 BCN 20 [0 ffffffff 0 0] 
r 5.582784033 _9_ MAC  --- 0 BCN 20 [0 ffffffff 0 0] 
r 5.582784033 _19_ MAC  --- 0 BCN 20 [0 ffffffff 0 0] 
s 5.601600000 _20_ MAC  --- 0 CM7 8 [0 ffffffff 14 0] 
r 5.602048033 _19_ MAC  --- 0 CM7 8 [0 ffffffff 14 0] 
r 5.602048033 _18_ MAC  --- 0 CM7 8 [0 ffffffff 14 0] 
s 5.604352033 _19_ MAC  --- 0 BCN 11 [0 14 13 0] 
s 5.628000000 _17_ MAC  --- 0 CM7 8 [0 ffffffff 11 0] 
s 5.649600067 _7_ MAC  --- 0 BCN 12 [0 ffffffff 7 0] 
D 5.650176100 _1_ MAC  COO 0 BCN 12 [0 ffffffff 7 0] 
D 5.650176100 _9_ MAC  COO 0 BCN 12 [0 ffffffff 7 0] 
s 5.694720067 _2_ MAC  --- 0 BCN 12 [0 ffffffff 2 0] 
D 5.695296100 _1_ MAC  COO 0 BCN 12 [0 ffffffff 2 0] 
D 5.695296100 _19_ MAC  COO 0 BCN 12 [0 ffffffff 2 0] 
s 5.703680067 _16_ MAC  --- 0 BCN 12 [0 ffffffff 10 0] 
D 5.704256100 _19_ MAC  COO 0 BCN 12 [0 ffffffff 10 0] 
s 5.704832000 _0_ MAC  --- 0 BCN 20 [0 ffffffff 0 0] 
r 5.705664033 _1_ MAC  --- 0 BCN 20 [0 ffffffff 0 0] 
r 5.705664033 _9_ MAC  --- 0 BCN 20 [0 ffffffff 0 0] 
r 5.705664033 _19_ MAC  --- 0 BCN 20 [0 ffffffff 0 0] 
s 5.772480067 _7_ MAC  --- 0 BCN 12 [0 ffffffff 7 0] 
D 5.773056100 _1_ MAC  COO 0 BCN 12 [0 ffffffff 7 0] 
D 5.773056100 _9_ MAC  COO 0 BCN 12 [0 ffffffff 7 0] 
s 5.801280000 _5_ MAC  --- 0 CM7 8 [0 ffffffff 5 0] 
r 5.801728033 _4_ MAC  --- 0 CM7 8 [0 ffffffff 5 0] 
r 5.801728033 _1_ MAC  --- 0 CM7 8 [0 ffffffff 5 0] 
s 5.803072033 _1_ MAC  --- 0 BCN 11 [0 5 1 0] 
s 5.817600067 _2_ MAC  --- 0 BCN 12 [0 ffffffff 2 0] 
D 5.818176100 _1_ MAC  COO 0 BCN 12 [0 ffffffff 2 0] 
D 5.818176100 _19_ MAC  COO 0 BCN 12 [0 ffffffff 2 0] 
s 5.826560067 _16_ MAC  --- 0 BCN 12 [0 ffffffff 10 0] 
D 5.827136100 _19_ MAC  COO 0 BCN 12 [0 ffffffff 10 0] 
s 5.827712000 _0_ MAC  --- 0 BCN 20 [0 ffffffff 0 0] 
r 5.828544033 _1_ MAC  --- 0 BCN 20 [0 ffffffff 0 0] 
r 5.828544033 _9_ MAC  --- 0 BCN 20 [0 ffffffff 0 0] 
r 5.828544033 _19_ MAC  --- 0 BCN 20 [0 ffffffff 0 0] 
s 5.833504033 _13_ MAC  --- 0 CM4 16 [0 0 d 0] 
r 5.834208067 _0_ MAC  --- 0 CM4 16 [0 0 d 0] 
s 5.834432000 _0_ MAC  --- 0 ACK 5 [0 d 0 0] 
r 5.834784033 _13_ MAC  --- 0 ACK 5 [0 d 0 0] 
s 5.835072000 _0_ MAC  --- 0 CM2 25 [0 d 0 0] 
r 5.836064033 _13_ MAC  --- 0 CM2 25 [0 d 0 0] 
s 5.836256033 _13_ MAC  --- 0 ACK 5 [0 0 d 0] 
r 5.836608067 _0_ MAC  --- 0 ACK 5 [0 0 d 0] 
s 5.863680000 _20_ MAC  --- 0 CM7 8 [0 ffffffff 14 0] 
s 5.892320000 _17_ MAC  --- 0 CM1 17 [0 10 11 0] 
r 5.893056033 _16_ MAC  --- 0 CM1 17 [0 10 11 0] 
s 5.893440067 _16_ MAC  --- 0 ACK 5 [0 11 10 0] 
r 5.893792100 _17_ MAC  --- 0 ACK 5 [0 11 10 0] 
s 5.895360067 _7_ MAC  --- 0 BCN 12 [0 ffffffff 7 0] 
D 5.895936100 _1_ MAC  COO 0 BCN 12 [0 ffffffff 7 0] 
D 5.895936100 _9_ MAC  COO 0 BCN 12 [0 ffffffff 7 0] 
s 5.940480067 _2_ MAC  --- 0 BCN 12 [0 ffffffff 2 0] 
D 5.941056100 _1_ MAC  COO 0 BCN 12 [0 ffffffff 2 0] 
D 5.941056100 _19_ MAC  COO 0 BCN 12 [0 ffffffff 2 0] 
s 5.949440067 _16_ MAC  --- 0 BCN 20 [0 ffffffff 10 0] 
D 5.950272100 _13_ MAC  COO 0 BCN 20 [0 ffffffff 10 0] 
D 5.950272100 _19_ MAC  COO 0 BCN 20 [0 ffffffff 10 0] 
s 5.950592000 _0_ MAC  --- 0 BCN 12 [0 ffffffff 0 0] 
r 5.951168033 _1_ MAC  --- 0 BCN 12 [0 ffffffff 0 0] 
r 5.951168033 _9_ MAC  --- 0 BCN 12 [0 ffffffff 0 0] 
r 5.951168033 _19_ MAC  --- 0 BCN 12 [0 ffffffff 0 0] 
r 5.951168033 _13_ MAC  --- 0 BCN 12 [0 ffffffff 0 0] 
s 6.001920000 _10_ MAC  --- 0 CM7 8 [0 ffffffff a 0] 
r 6.002368033 _9_ MAC  --- 0 CM7 8 [0 ffffffff a 0] 
r 6.002368033 _8_ MAC  --- 0 CM7 8 [0 ffffffff a 0] 
s 6.005632033 _9_ MAC  --- 0 BCN 11 [0 a 9 0] 
s 6.018240067 _7_ MAC  --- 0 BCN 12 [0 ffffffff 7 0] 
D 6.018816100 _1_ MAC  COO 0 BCN 12 [0 ffffffff 7 0] 
D 6.018816100 _9_ MAC  COO 0 BCN 12 [0 ffffffff 7 0] 
s 6.063360067 _2_ MAC  --- 0 BCN 12 [0 ffffffff 2 0] 
D 6.063936100 _1_ MAC  COO 0 BCN 12 [0 ffffffff 2 0] 
D 6.063936100 _19_ MAC  COO 0 BCN 12 [0 ffffffff 2 0] 
s 6.065280000 _5_ MAC  --- 0 CM7 8 [0 ffffffff 5 0] 
s 6.072320067 _16_ MAC  --- 0 BCN 20 [0 ffffffff 10 0] 
D 6.073152100 _13_ MAC  COO 0 BCN 20 [0 ffffffff 10 0] 
D 6.073152100 _19_ MAC  COO 0 BCN 20 [0 ffffffff 10 0] 
s 6.073472000 _0_ MAC  --- 0 BCN 12 [0 ffffffff 0 0] 
r 6.074048033 _1_ MAC  --- 0 BCN 12 [0 ffffffff 0 0] 
r 6.074048033 _9_ MAC  --- 0 BCN 12 [0 ffffffff 0 0] 
r 6.074048033 _19_ MAC  --- 0 BCN 12 [0 ffffffff 0 0] 
r 6.074048033 _13_ MAC  --- 0 BCN 12 [0 ffffffff 0 0] 
s 6.089440000 _3_ MAC  --- 0 CM7 8 [0 ffffffff 3 0] 
r 6.089888033 _2_ MAC  --- 0 CM7 8 [0 ffffffff 3 0] 
s 6.126400000 _20_ MAC  --- 0 CM7 8 [0 ffffffff 14 0] 
s 6.141120067 _7_ MAC  --- 0 BCN 12 [0 ffffffff 7 0] 
D 6.141696100 _1_ MAC  COO 0 BCN 12 [0 ffffffff 7 0] 
D 6.141696100 _9_ MAC  COO 0 BCN 12 [0 ffffffff 7 0] 
s 6.186240067 _2_ MAC  --- 0 BCN 12 [0 ffffffff 2 0] 
D 6.186816100 _1_ MAC  COO 0 BCN 12 [0 ffffffff 2 0] 
D 6.186816100 _19_ MAC  COO 0 BCN 12 [0 ffffffff 2 0] 
s 6.195200067 _16_ MAC  --- 0 BCN 20 [0 ffffffff 10 0] 
D 6.196032100 _13_ MAC  COO 0 BCN 20 [0 ffffffff 10 0] 
D 6.196032100 _19_ MAC  COO 0 BCN 20 [0 ffffffff 10 0] 
s 6.196352000 _0_ MAC  --- 0 BCN 12 [0 ffffffff 0 0] 
r 6.196928033 _1_ MAC  --- 0 BCN 12 [0 ffffffff 0 0] 
r 6.196928033 _9_ MAC  --- 0 BCN 12 [0 ffffffff 0 0] 
r 6.196928033 _19_ MAC  --- 0 BCN 12 [0 ffffffff 0 0] 
r 6.196928033 _13_ MAC  --- 0 BCN 12 [0 ffffffff 0 0] 
s 6.264000067 _7_ MAC  --- 0 BCN 12 [0 ffffffff 7 0] 
D 6.264576100 _1_ MAC  COO 0 BCN 12 [0 ffffffff 7 0] 
D 6.264576100 _9_ MAC  COO 0 BCN 12 [0 ffffffff 7 0] 
s 6.264960000 _10_ MAC  --- 0 CM7 8 [0 ffffffff a 0] 
s 6.292000000 _6_ MAC  --- 0 CM7 8 [0 ffffffff 6 0] 
r 6.292448033 _7_ MAC  --- 0 CM7 8 [0 ffffffff 6 0] 
s 6.300320000 _14_ MAC  --- 0 CM7 8 [0 ffffffff e 0] 
r 6.300768033 _13_ MAC  --- 0 CM7 8 [0 ffffffff e 0] 
r 6.300768033 _15_ MAC  --- 0 CM7 8 [0 ffffffff e 0] 
s 6.302912033 _13_ MAC  --- 0 BCN 11 [0 e d 0] 
s 6.309120067 _2_ MAC  --- 0 BCN 12 [0 ffffffff 2 0] 
D 6.309696100 _1_ MAC  COO 0 BCN 12 [0 ffffffff 2 0] 
D 6.309696100 _19_ MAC  COO 0 BCN 12 [0 ffffffff 2 0] 
s 6.318080067 _16_ MAC  --- 0 BCN 20 [0 ffffffff 10 0] 
D 6.318912100 _13_ MAC  COO 0 BCN 20 [0 ffffffff 10 0] 
D 6.318912100 _19_ MAC  COO 0 BCN 20 [0 ffffffff 10 0] 
s 6.319232000 _0_ MAC  --- 0 BCN 12 [0 ffffffff 0 0] 
r 6.319808033 _1_ MAC  --- 0 BCN 12 [0 ffffffff 0 0] 
r 6.319808033 _9_ MAC  --- 0 BCN 12 [0 ffffffff 0 0] 
r 6.319808033 _19_ MAC  --- 0 BCN 12 [0 ffffffff 0 0] 
r 6.319808033 _13_ MAC  --- 0 BCN 12 [0 ffffffff 0 0] 
s 6.328000000 _5_ MAC  --- 0 CM7 8 [0 ffffffff 5 0] 
s 6.352160000 _3_ MAC  --- 0 CM7 8 [0 ffffffff 3 0] 
s 6.377504067 _11_ MAC  --- 0 CM7 8 [0 ffffffff b 0] 
r 6.377952100 _9_ MAC  --- 0 CM7 8 [0 ffffffff b 0] 
r 6.377952100 _13_ MAC  --- 0 CM7 8 [0 ffffffff b 0] 
r 6.377952100 _15_ MAC  --- 0 CM7 8 [0 ffffffff b 0] 
s 6.380032033 _13_ MAC  --- 0 BCN 11 [0 b d 0] 
s 6.380992033 _9_ MAC  --- 0 BCN 11 [0 b 9 0] 
s 6.385312100 _17_ MAC  --- 0 CM4 16 [0 10 11 0] 
r 6.386016133 _16_ MAC  --- 0 CM4 16 [0 10 11 0] 
s 6.386240067 _16_ MAC  --- 0 ACK 5 [0 11 10 0] 
r 6.386592100 _17_ MAC  --- 0 ACK 5 [0 11 10 0] 
s 6.386880067 _7_ MAC  --- 0 BCN 12 [0 ffffffff 7 0] 
s 6.386880067 _16_ MAC  --- 0 CM2 25 [0 11 10 0] 
D 6.387456100 _1_ MAC  COO 0 BCN 12 [0 ffffffff 7 0] 
D 6.387456100 _9_ MAC  COO 0 BCN 12 [0 ffffffff 7 0] 
r 6.387872100 _17_ MAC  --- 0 CM2 25 [0 11 10 0] 
s 6.388064100 _17_ MAC  --- 0 ACK 5 [0 10 11 0] 
r 6.388416133 _16_ MAC  --- 0 ACK 5 [0 10 11 0] 
s 6.390720000 _20_ MAC  --- 0 CM1 17 [0 13 14 0] 
r 6.391456033 _19_ MAC  --- 0 CM1 17 [0 13 14 0] 
s 6.391872033 _19_ MAC  --- 0 ACK 5 [0 14 13 0] 
r 6.392224067 _20_ MAC  --- 0 ACK 5 [0 14 13 0] 
s 6.432000067 _2_ MAC  --- 0 BCN 12 [0 ffffffff 2 0] 
D 6.432576100 _1_ MAC  COO 0 BCN 12 [0 ffffffff 2 0] 
D 6.432576100 _19_ MAC  COO 0 BCN 12 [0 ffffffff 2 0] 
s 6.440960067 _16_ MAC  --- 0 BCN 12 [0 ffffffff 10 0] 
D 6.441536100 _13_ MAC  COO 0 BCN 12 [0 ffffffff 10 0] 
D 6.441536100 _19_ MAC  COO 0 BCN 12 [0 ffffffff 10 0] 
r 6.441536100 _17_ MAC  --- 0 BCN 12 [0 ffffffff 10 0] 
s 6.442112000 _0_ MAC  --- 0 BCN 12 [0 ffffffff 0 0] 
r 6.442688033 _1_ MAC  --- 0 BCN 12 [0 ffffffff 0 0] 
r 6.442688033 _9_ MAC  --- 0 BCN 12 [0 ffffffff 0 0] 
r 6.442688033 _19_ MAC  --- 0 BCN 12 [0 ffffffff 0 0] 
r 6.442688033 _13_ MAC  --- 0 BCN 12 [0 ffffffff 0 0] 
s 6.509760067 _7_ MAC  --- 0 BCN 12 [0 ffffffff 7 0] 
D 6.510336100 _1_ MAC  COO 0 BCN 12 [0 ffffffff 7 0] 
D 6.510336100 _9_ MAC  COO 0 BCN 12 [0 ffffffff 7 0] 
s 6.529280000 _10_ MAC  --- 0 CM7 8 [0 ffffffff a 0] 
r 6.529728033 _12_ MAC  --- 0 CM7 8 [0 ffffffff a 0] 
s 6.554400000 _6_ MAC  --- 0 CM7 8 [0 ffffffff 6 0] 
s 6.554880067 _2_ MAC  --- 0 BCN 12 [0 ffffffff 2 0] 
D 6.555456100 _1_ MAC  COO 0 BCN 12 [0 ffffffff 2 0] 
D 6.555456100 _19_ MAC  COO 0 BCN 12 [0 ffffffff 2 0] 